LAMMPS data file via write_data, version 29 Oct 2020, timestep = 250000

2744 atoms
1 atom types

-0.08873737625230227 24.89673737625282 xlo xhi
-0.08873737625230227 24.89673737625282 ylo yhi
3.700717139279895 55.96517981345255 zlo zhi

Masses

1 58.933

Atoms # atomic

2738 1 2.9642302635085485 1.980243651355686 5.500313095337439 0 2 1
2079 1 1.8492034898123397 1.157925663690491 7.4985435674169345 -1 0 0
2056 1 0.7305008133099117 2.593616370224607 5.6225995323000655 1 -1 2
2585 1 2.7827681054191324 3.1738726765438714 8.061175783542211 0 1 -1
2575 1 24.186494917351375 2.0759187658790204 7.692351340093878 -1 -1 2
2224 1 0.12190322397804829 21.784273957038828 12.015060744856486 0 1 1
404 1 3.5468070004463987 0.6749671543243704 3.736173130137286 0 1 0
747 1 5.1693627375853195 23.09433557368267 7.987854392275773 1 0 0
1196 1 4.248915164399124 0.3175022171322923 6.338664776862382 -1 1 0
200 1 6.442972188283073 1.184597899745276 5.643816859100867 -1 0 0
992 1 6.702731009840598 2.5146164632907086 7.449959693292053 0 0 0
1465 1 8.797611194688807 2.076693745839126 6.6626628566492165 2 -1 0
1164 1 10.068201470303729 3.3136857292696003 5.202206348652471 0 1 0
853 1 5.359365799205946 2.1040140523384325 3.7167823649734144 1 1 0
215 1 6.42752763096306 0.10137783217672233 7.974045671129501 1 0 0
201 1 12.34535241323307 1.761873075223774 4.7618116707247715 0 0 0
2117 1 8.353983961627913 0.12703163259300523 5.240639494116687 0 1 1
1215 1 7.764617086441732 3.3334147948189305 5.369826777965615 0 0 0
493 1 12.219239498281171 5.1139589927634255 5.646542730111247 -1 0 0
2199 1 10.545236719617927 1.0929454455672267 5.628025985055274 1 0 0
2283 1 7.2385591109002325 22.699484232833093 3.970129398079185 -2 -2 0
821 1 8.919511910295592 11.19523174054121 4.090110649306947 1 1 0
1410 1 11.934551523268539 2.850475773175492 6.740583809979549 -1 -3 1
1371 1 14.560313825804501 1.4455398958570789 4.534202738219908 -1 1 0
1303 1 14.494352131476129 3.559626919823382 4.8172503664264195 0 1 1
1943 1 15.836880218328353 0.3728961886286687 6.504876387923227 1 1 2
1392 1 4.924394985151785 14.845063009149195 3.721524597189389 0 2 1
975 1 15.821114699835746 2.4568393697859214 6.7185840296727255 -1 1 0
179 1 12.960687880146748 24.835332589320473 5.715243302299883 0 -1 0
1776 1 16.986870394899277 2.4765871938979416 4.534574851589104 3 -1 1
2449 1 18.13247746191451 1.6123603659757497 6.801127897053155 0 3 2
1662 1 19.326984517906197 3.0194297094946267 5.516093636432853 0 1 2
2302 1 20.55169472444352 1.18207328727714 6.872538080779405 2 2 0
811 1 18.650554805519924 0.8585464718115351 4.313677784967997 0 0 0
1399 1 21.061357729672835 1.609655780101117 4.352059214179048 0 -1 2
342 1 23.465755368785118 1.0512033042424265 4.144170959372477 0 -1 0
2246 1 22.337905267056414 2.7675028370476844 5.83859335144272 1 1 2
2316 1 21.60892005172188 24.53077789726916 4.66660205677136 0 -2 0
1374 1 -0.06252121725739815 24.82014008000841 6.470312157045638 -2 0 1
23 1 8.731639006452848 8.839351085000615 4.337825780884334 1 0 0
2402 1 21.97030532225729 3.7810787818276177 3.862462477916991 -1 0 0
428 1 22.496748497297858 0.07591512453481702 6.720077123269306 -2 0 0
1450 1 2.5162420518996442 4.425206237995845 5.919074960978344 2 0 0
1919 1 1.4793524371885145 6.510868436590425 6.8802191061813485 0 0 2
2562 1 0.052280413133484804 7.301742759111913 4.428614035637029 3 1 1
1448 1 3.472584116969576 5.287665779150048 7.736899960990302 2 1 2
133 1 2.769954010025767 6.350346556673299 4.492576783441863 0 -1 0
2321 1 23.36672280675345 21.703119405222004 13.679183784519749 -2 1 1
2507 1 0.4513451079017643 4.396957919751161 7.73238235926927 3 1 3
2097 1 4.6928619198233035 3.321679887461184 6.137587273427309 1 2 -1
2138 1 4.623002713518771 6.666359307905788 6.019879544243096 0 0 2
99 1 6.074272840447071 4.92250240652083 7.631149783790448 0 -1 0
208 1 7.0690388258097405 7.504839693352603 6.6077158492441495 -1 -1 0
1997 1 6.3949918512298485 5.023378765326714 5.429930099968522 -1 0 1
867 1 10.391381442872879 4.463125295198823 7.046623364818081 0 1 0
1785 1 23.098942684259043 8.379718176102946 3.839565823092621 0 1 1
2598 1 11.346587058900692 6.764975409574091 7.308075395708781 -2 1 2
2733 1 8.421002192744915 5.7604468116758065 6.932801363545434 -1 0 1
2420 1 13.317490323627032 6.940731911330969 8.52783136598752 0 0 3
2481 1 12.642502394658793 4.6929799507853796 8.357641362139042 0 0 1
211 1 13.446642864746195 7.952405061152797 6.183803868550866 1 0 0
271 1 23.392444607687125 6.021026662539798 4.174043946659826 -1 1 0
1358 1 14.512725423100898 4.745208516934622 6.945400089858565 -1 1 0
1847 1 15.828894773358735 7.789596657199898 5.1352504884991745 1 -1 0
1834 1 14.782864725761426 5.770814489414278 4.974425501924124 1 1 0
1129 1 17.44087426077904 3.520437680352003 7.663462881789297 0 0 0
144 1 16.612765783543963 4.659501486631841 5.523232879064846 0 0 0
368 1 19.979280941138775 8.297076541470865 7.000019312059424 0 0 0
266 1 19.08041962666593 5.303221641531396 6.780834378151077 -1 0 0
1066 1 22.6135293410057 12.780267228767187 4.188820793488764 -1 -1 0
714 1 17.899204101895464 6.79856359271059 5.394662336213745 -1 0 0
1225 1 21.467781923910955 5.396566006532416 5.789972437262623 -1 1 0
59 1 24.034833269387917 4.6044885284762405 6.130817835217028 -1 0 0
2369 1 3.971474007416867 4.412470042743181 3.9486272516258896 0 0 -1
785 1 23.91818234838675 6.638890203767207 6.521195780017482 0 0 0
509 1 22.087258960037538 8.131190310826856 5.914877710857147 -1 0 0
1072 1 21.70945708332129 6.88183779415321 7.902866183687603 -1 1 0
222 1 1.6592948455725904 8.540332320846645 5.282873453405488 1 0 0
2122 1 3.1557512271100263 11.802508006303414 7.096681400790704 2 1 0
381 1 3.8419401786449563 9.110549408196627 4.758310297116966 0 0 0
1102 1 2.801612019572734 8.003504959702115 7.054843560862947 1 1 0
1027 1 0.7309911855724857 12.306685809697102 7.5644668167754014 1 0 0
518 1 21.22578233989214 22.130363183262283 15.950818044396428 0 -1 0
995 1 5.077139553359531 9.771848572670532 6.702102745234562 0 1 0
2417 1 9.598383070348817 7.045931269869942 8.617490582739176 0 -1 1
2031 1 5.903377005385982 12.014607044791607 7.280701216587255 1 1 3
503 1 8.024202459457795 10.60614390709859 6.171358917530448 0 0 0
1880 1 11.80189269891773 8.898366062664753 8.274022893694244 0 0 1
286 1 9.254044473884164 8.024041233707962 6.477934814881909 0 0 0
854 1 11.287094937115867 8.05837066148094 5.158505159247859 0 1 0
1766 1 8.117224299140979 11.415000851256673 8.485095789654366 0 1 1
1095 1 11.758876415722465 9.41602328747829 10.624261041835599 -1 0 0
922 1 10.228356212591814 11.463218312622715 8.212237087178377 1 0 0
1972 1 10.292568874148008 10.168753231420101 5.8607062971392825 -1 -2 1
1180 1 15.4129636326028 7.985286438260076 7.4779113748149975 -1 0 0
1159 1 3.491790147982797 17.845953253501335 3.8648090783518128 -1 0 0
2128 1 16.349525493628853 12.085509897920359 6.406430847263964 1 1 0
734 1 12.243447864505455 10.83477798129826 7.201352311824094 -1 0 0
1996 1 14.970180584252265 10.341849183547065 5.90423756822438 1 -1 1
1041 1 13.81816035841235 11.938982855509838 5.029603967585251 -2 0 0
245 1 15.652341214844336 12.854045645203643 3.932055035899743 0 0 0
1255 1 14.077431091929315 9.73436216599157 8.585149148500548 -1 0 0
83 1 21.31147661735369 10.480417266661462 6.838410693648713 0 0 0
1957 1 17.104226388871936 10.569373509329843 4.857828578468277 -1 1 2
2656 1 18.12737662483117 7.462842257007538 8.011359779992048 1 -1 2
768 1 18.101805140077296 8.976170926243384 6.060077457361375 0 1 0
176 1 19.55393772779626 9.905391851236756 4.768345920844209 -1 0 0
372 1 19.179888487081733 11.849038626260684 6.3207382256142 -1 0 0
403 1 19.204724881432007 10.231304275127455 7.847175810872721 0 -1 0
988 1 24.345021251655716 8.894371940840395 5.984985883838192 -1 1 0
2162 1 0.9693030261304354 11.493250480527267 5.297476289986664 1 -2 2
71 1 21.652375066688236 10.382002922968363 4.759602044732828 0 0 0
2237 1 23.779571822212652 11.392992737937341 6.235998380313426 -3 -1 0
2033 1 6.1094121020471555 11.524946621119309 5.0085144976541685 0 -3 1
1711 1 1.6158236190499473 14.203559146442057 8.22299434526974 0 -2 -1
964 1 3.747546904128915 15.250446841955856 6.725252177088172 1 1 0
1784 1 2.401128671073697 13.678666879068714 5.73304874756252 1 -2 0
1416 1 24.45304584855252 15.71961338805953 5.42391780004626 -1 0 2
856 1 1.5684117505688666 16.19901184178432 7.066391243350398 -1 0 0
1793 1 2.6266849406700286 15.751873093375211 4.832018150324615 -1 -2 2
1843 1 7.818905121279187 15.188403621238624 5.234858589711932 1 -2 2
2334 1 7.81669524874028 12.99678342032507 6.064106868364683 -1 0 -1
2470 1 4.813879697432778 13.65483762546446 5.780571886958668 2 0 1
477 1 9.27737995058863 16.85542083532733 4.410563445292212 0 0 0
392 1 6.501388302219003 14.404915357231884 7.410026639031798 1 0 0
2143 1 23.58071456861805 23.982290474511835 12.49990307947517 -1 0 -1
1691 1 15.219997367986881 22.72682462634279 4.381270748047485 -1 -1 -1
844 1 9.855217364693912 13.206980454351745 6.813108300078969 0 0 0
2345 1 12.004683161246156 13.252178124724404 6.605794400991341 2 1 1
249 1 10.440933239882073 15.440452522732638 7.5734138909577275 0 1 0
2473 1 10.117110335157621 15.000936840479124 5.374017340186532 0 -2 2
625 1 14.214466317178472 12.092806870995595 7.369991955143359 0 0 0
323 1 13.011649641927725 15.568508216983256 7.279073021619833 -1 0 0
1976 1 12.412756106944178 14.661860231037778 4.573753062716582 0 0 1
741 1 15.847621297711159 15.135483686758203 5.081053762838202 0 0 0
224 1 15.913726084102384 16.14169416521812 7.163204120592455 0 0 0
293 1 14.857158383025574 13.904393171136247 6.431632088656217 0 0 0
212 1 11.725402415561499 17.037792619883746 5.36995604765244 0 -1 0
1913 1 17.789325583569315 13.676961022844088 5.304162215846941 0 -1 1
805 1 17.853416358990437 14.392839497072353 7.85197518657766 0 0 0
2723 1 19.346855432724993 4.832841140645395 4.33823780645803 -2 0 2
1612 1 20.156143969317377 12.05501561727207 8.618723023407327 0 0 0
873 1 18.483097982423153 15.803417736324446 6.109663800466239 0 0 0
173 1 22.819302712386907 23.640934329770538 14.875098255135338 -1 -1 0
2203 1 22.943460997755928 16.90523662497464 6.90026168513166 -1 1 1
1926 1 23.903223891983814 13.553646635352798 6.315756376866132 -2 0 1
942 1 20.14950344736784 13.914809657493015 7.6566533478085805 0 1 0
1009 1 21.411849528462504 12.825708658074252 5.913950125102568 -1 0 0
389 1 22.095342902810962 14.813764625830187 5.089715263810552 0 0 0
317 1 20.80596952202511 16.214581620186188 6.437308906610854 0 -1 0
2344 1 22.052022809304383 17.3137230585062 4.769257737277439 -2 0 0
669 1 23.73748438283903 10.807824430690463 3.8447067069038 1 0 1
890 1 2.9395061018642967 20.078620641545193 4.951070186394965 0 0 0
945 1 0.5181907083630934 19.705344104858078 4.461636334343931 1 0 0
1765 1 -0.03472718397019486 18.137106049530622 6.712421817529363 -1 -3 1
237 1 2.8205149402428575 22.4186282828908 4.152485842475127 0 -1 0
1054 1 1.2919940965298642 19.858421258928118 6.749497408474589 -1 0 0
1031 1 5.785098059223699 16.51745150174841 7.312222053616212 0 0 0
1437 1 7.364219534845653 17.558635106030245 5.859714812879432 1 -3 1
2242 1 5.264562101687303 16.267888214233786 5.181203646050999 1 0 1
193 1 7.3975126829655835 20.209291395791055 5.040655790983374 0 -1 0
536 1 5.483990014185027 19.282564595380464 6.154447072759402 0 -1 0
203 1 21.895282300975545 0.2300437331347211 16.298999557175172 0 0 0
1380 1 9.42099044629438 19.233506141001193 4.534929108491479 -3 2 -1
636 1 8.827173327057196 19.56984706776391 6.873867809693959 -1 -1 0
1117 1 6.270237502270981 22.55887058807906 16.61232683866431 0 0 0
233 1 0.3347726792304663 13.684065326897143 4.231549180116923 0 0 0
1622 1 8.265460068967514 16.388010906194232 7.8154188309427886 1 0 1
1466 1 10.009744897013356 17.559899031837254 6.7620968077801145 0 0 1
2169 1 1.186491578568534 17.578339366477728 4.84363434225936 2 -2 0
85 1 20.927213336360097 22.596298466395616 13.564439258028738 -1 0 -1
1810 1 14.441650649339826 18.188850217138743 8.589454130524555 -3 -3 1
405 1 14.164646347964236 16.48624446034563 5.551203163385033 0 0 0
2064 1 13.123481721610167 18.917650370857686 4.122036054191532 1 0 1
2552 1 14.799718094893421 19.034179221989476 6.508920439846381 0 1 2
1004 1 12.963355840411962 17.90364501030946 6.90836567480391 -1 0 0
168 1 1.3835805947042585 1.1647194286685665 4.118609497909856 0 1 0
2407 1 19.14436710122522 17.651454438122883 4.966089756349619 0 -1 1
2363 1 16.873139869798642 17.539987482184614 5.533010901825846 -1 0 1
960 1 16.991668347347733 18.7330288222663 7.9365723650167865 -1 0 0
1763 1 18.68141038775662 19.428897453008524 6.283873978840246 1 -2 1
1068 1 17.79563860257975 20.84795494206518 7.917142404983311 0 -1 0
2444 1 19.248323637825237 17.415680971668124 7.7313894990460446 1 0 1
651 1 23.18328530018224 19.257847932569106 5.561882680959526 -2 0 0
845 1 0.6852989047611788 14.727711626498374 16.213135410613745 0 0 0
1170 1 21.79420590460446 20.840669895087366 6.575778076208457 0 0 0
1663 1 21.11511453217917 18.50895234519362 6.6724428364931345 4 -1 -1
448 1 22.646812262031048 19.149252974102794 8.003076212501476 -1 -1 0
886 1 24.16202736557249 21.557589464279353 7.094974057363725 0 0 0
2438 1 19.095241934311623 23.773836894612757 14.352713668163313 0 0 1
1306 1 0.43493458569884746 23.946693937222513 4.011767758946108 0 0 0
545 1 0.964498432322141 22.370957696426935 5.63078663916989 0 -1 0
1415 1 24.2609484020045 19.04851151882105 16.72409025278365 0 -1 0
1446 1 3.381922400580699 22.37402048485839 6.557228303200656 3 0 2
475 1 2.3493994882422613 24.311624160074196 5.653907368263404 1 0 0
909 1 0.9450150046587966 23.598333377068137 7.952632103846942 -1 0 0
1717 1 1.5692106375432766 21.465728433003264 8.528377135824773 2 -1 1
2468 1 4.677405133967174 23.8931581880952 4.443784324093404 -2 1 1
1598 1 0.7204996245030982 5.001466709481814 4.600568305345023 0 -2 2
1192 1 7.266971919693238 21.486346823253612 7.42145524415265 0 0 0
113 1 5.081459494146823 21.503928198653938 5.002100606411512 0 -1 0
92 1 6.208033901718329 23.49062749051103 6.301486354573846 0 0 0
48 1 8.85905967172098 22.947292230361306 6.080240901155149 0 -1 0
892 1 7.586684547910414 23.176529277419988 8.811171539179806 0 0 0
827 1 11.22882441609553 20.058746581647277 5.5036519691325765 -1 0 0
677 1 1.6981611766676823 5.099161326131382 16.37574958499998 -1 1 0
1983 1 10.556683189328036 23.894681658999623 5.33590179745791 1 -2 1
1547 1 9.692112308382436 22.03049732446297 4.086867784573398 0 -3 0
1169 1 12.548535544525382 10.030974553595218 5.1072212163321105 0 0 0
1532 1 12.607442738746924 22.80458064033205 4.377742708568796 2 0 0
398 1 14.814894937142357 22.896363378543214 6.591026692445954 0 -1 0
355 1 14.156859326137273 20.879918439099455 4.677204510551249 0 -1 0
1281 1 13.701605740729564 22.44338469353962 8.8257634784885 0 0 0
384 1 12.896855901472957 21.45945387636158 6.399412511667055 0 -1 0
888 1 19.58739835576136 24.495330129908965 6.355694196959897 -1 -1 0
316 1 16.549025810151647 20.691117968618045 5.5338942590724525 0 -1 0
817 1 17.01091283730426 22.766094734398614 7.0496391493018065 -1 0 0
721 1 18.059816651023 19.840137729703542 3.8810873044551855 -1 -1 0
956 1 17.461878384253012 21.95030000546027 3.8217694434006404 -1 0 0
969 1 19.278986239365864 21.524857852034813 5.973697632322361 0 0 0
461 1 19.891013564090024 19.635578901051076 8.361075820827686 0 -1 0
837 1 17.35880762773636 24.071490795462246 5.448920975473811 -1 -1 0
1529 1 19.416144471348744 23.319626330099055 4.410930000824004 -2 -1 1
498 1 21.291966653089908 22.262716245362583 4.7966144782994755 0 -1 0
970 1 20.59442036893313 19.819619694698275 4.673743054836516 -1 1 0
2719 1 23.748215939941858 23.616513286000774 8.510480660827328 -3 1 -1
2614 1 23.66315834261755 21.25373711232178 4.416960883616628 -2 0 1
777 1 23.30398304080107 23.32029666162559 5.606565720675448 -1 0 0
1378 1 21.450549490284025 23.04251175778778 7.025821969320679 -1 -1 1
2074 1 3.1441417947424415 4.215297841057021 10.369909341011121 1 0 2
848 1 2.2312410845077424 24.846255341346932 10.386068424605789 1 -1 0
2676 1 1.3494992734420013 2.5814231799188785 9.58959963053069 1 1 0
789 1 2.997419618291679 24.043105078789225 8.645369770586944 0 -1 0
1151 1 3.209754468115805 1.8816119348713358 10.941118253578434 0 1 0
1063 1 0.1298413130292616 1.1978157530286127 11.620679682876547 1 1 0
1550 1 3.9771155840642303 1.1891160400292546 8.56172105119871 0 0 -1
586 1 7.618156281597483 24.596323310610124 10.684697646107434 0 0 0
2076 1 5.508563791106603 1.7303964958949665 9.92022258287415 0 -2 1
1681 1 8.05983487675131 1.8413114857202495 11.543387005434802 -2 0 2
2120 1 5.129548704031636 3.9661301713135257 11.462178864977489 -2 -2 -1
826 1 5.290709634227802 24.36672564134956 10.020322468253259 0 0 0
339 1 5.882565202436655 0.7026335763875511 11.936872560558351 0 0 0
1253 1 9.5619543595279 3.7375131497546707 10.866809356108952 0 -1 0
911 1 10.409854965564225 2.5120579839992443 8.69781080108257 0 1 0
2205 1 8.275059141134937 1.5587752506143489 9.446458355978304 1 0 -1
1815 1 9.890952356222476 0.7697488798231858 10.740220181327025 1 0 1
2067 1 11.922751017735786 0.41696560983827835 7.873921791960799 1 -1 -1
156 1 12.743107663786219 1.6820662511799422 11.791383271187735 -1 0 0
19 1 9.509446807512074 24.028883859157247 12.406527565985135 0 -1 0
1729 1 14.596170513193709 3.723887965867621 9.123700836987751 0 0 -1
11 1 12.587201617512791 2.156739457681835 9.359758082945103 0 1 0
143 1 14.534838309704272 1.4907228554730552 10.228090277630798 0 0 0
366 1 14.577651118302612 2.449137615895129 14.046154216961881 0 0 0
126 1 17.337307555728692 24.432530050358636 10.754943425524772 1 0 0
897 1 16.5997154999527 1.5563226662813872 9.211832663812816 -1 1 0
1351 1 16.22908030180269 1.1798049667894381 11.632208508988768 -1 1 1
961 1 18.81536444405544 3.1014696816988887 9.298381611075627 0 1 0
2111 1 17.51251129415339 24.5889975049761 8.015916491451279 0 -1 1
194 1 18.524810829009517 2.055785019325643 11.200140420333263 0 1 0
1363 1 19.272067212141337 0.9268252155599557 9.003498803957807 0 1 0
2014 1 20.715156348788263 2.159442180165214 12.920435818314655 -1 -1 2
740 1 0.11815142092414155 0.6133326292739344 9.26789622320133 0 2 0
657 1 20.597500778757833 1.0388713689232234 10.829787146078719 -1 1 0
336 1 22.097945461378416 1.4332639430418694 8.34831773724581 0 1 0
73 1 23.177569049281352 24.670221104987775 10.52588802634498 0 -1 0
382 1 21.496493687029854 24.15625904997851 11.903991920595995 0 -1 0
2156 1 23.529636866589215 2.3048483801058954 10.239951313908808 0 2 1
779 1 0.48290822908949993 4.034371393905878 11.870358852566762 -1 0 0
129 1 1.0841565463086211 5.508322939125419 9.808879718316431 0 0 0
1625 1 24.043015737536223 4.386259323442845 9.876078601048622 -2 2 2
539 1 3.4960124261545933 4.471317630998094 12.957864377110896 1 0 0
1429 1 0.5825044837334419 7.787646125191401 8.567910283838104 1 0 -3
24 1 4.904286061060178 3.6921651189601596 9.06646850191443 0 0 0
661 1 7.200557750296783 3.8909878146398063 10.29513499722332 -1 -1 0
145 1 5.0063991121572 5.853197166411243 9.760840495450093 0 0 0
468 1 7.172998637270223 6.844150382744363 8.99436944801296 0 -1 0
563 1 4.851273666302449 7.61268709036066 8.199304984302625 1 0 0
490 1 8.47111905745967 3.912555838658239 8.263923713425115 0 0 0
904 1 10.553085172916933 4.953715224590091 9.281192622576672 -1 0 0
18 1 8.426585318077835 5.685960645245762 10.593336002375768 0 0 0
68 1 11.768669826210747 3.7317832433989944 10.673247053023221 0 1 0
915 1 11.364079136777688 6.95624758449348 10.44900345935212 0 0 0
880 1 9.534402848627849 7.408913422126328 12.52400704402497 1 0 0
899 1 14.289083069907825 3.666064113604927 11.286025172028548 0 1 0
1344 1 14.206531921815529 4.92677882116841 13.057040701959625 0 1 0
1648 1 14.26656449584713 7.92543132526637 10.260964257520836 -3 0 2
2593 1 13.218774190298225 5.708339117804991 10.821183207261235 -2 0 2
857 1 15.256586366719972 6.0510269370230025 9.169433877985787 -1 0 0
445 1 15.78531945429472 5.967366560877167 11.423836928263038 1 -1 0
1833 1 18.161707592955715 5.460015483352513 9.86386980706585 -2 1 0
751 1 16.136868979513928 3.4284146629619583 12.873781826677499 1 0 0
8 1 16.671191008092237 5.696356939174993 7.522335978352674 -1 0 0
2497 1 20.14956991876879 3.9174260788881075 11.112154566333938 0 0 1
375 1 16.70930326420106 3.6038475032002433 10.401676663216994 0 0 0
914 1 20.110196388643857 5.61007002816123 8.740277067640452 -1 0 0
2314 1 18.134984228062024 4.7720498211373075 12.883089883212788 -1 -1 -1
86 1 19.893880350826073 6.143295630092848 11.515901873292698 -1 1 0
908 1 20.28859673367066 3.4100759592573264 7.269314292116733 0 0 0
1629 1 22.10312974967654 5.3712074167870805 10.045428352403455 -1 1 0
933 1 22.73433000970403 4.404628693358067 7.902499216238569 -1 1 0
1925 1 23.58255522418132 6.4800227751182815 8.946071749215013 -2 -1 0
31 1 21.158580878886163 3.237721199655993 9.221183977158695 -1 0 0
733 1 24.279983164479695 6.104023215296139 11.45886313826417 -1 0 0
1115 1 22.692452196906736 3.7909545162283105 11.716386181539331 0 1 0
2329 1 1.336961652296452 9.986794542863857 7.253039324851864 0 2 2
2174 1 24.21218562190259 10.267048164609736 8.372267090532326 -1 0 0
767 1 2.868716457187102 7.012920689097973 9.699234404166823 0 0 0
2679 1 2.2997950704660997 11.959076653063278 9.368041126506872 -2 0 1
1779 1 3.5383954491300624 9.435417377368584 11.266324430535933 -1 -1 0
2317 1 1.1564819725316995 9.816406252218467 9.4768615626316 2 1 -1
121 1 4.070001370880464 6.434625474507577 11.68890609144053 1 0 0
258 1 1.315991649822309 8.16045374504246 10.941905664386034 0 0 0
952 1 3.4614688021813333 9.82473562134248 8.282804463485638 1 1 0
681 1 4.850801273102361 11.136779885207606 9.37169327615874 1 0 0
2664 1 5.720533050312858 8.136805597898988 10.731827625850539 -1 -1 2
1938 1 6.847261676662108 10.574311393102047 10.535495654480897 -1 -1 1
1411 1 5.282325650025147 10.2850616488408 12.614128597338272 0 0 2
753 1 7.5663907153396455 8.574817349617957 12.216588755075314 1 1 0
2072 1 7.661435059447719 10.939875117342918 12.781418147789031 2 2 1
192 1 11.746949421413717 8.30577095740481 13.030559320915723 0 0 0
2454 1 9.97959769511145 9.77649387185206 13.600966277149778 -1 2 1
2362 1 9.382132500506378 9.552234748497018 8.76630524476268 0 2 0
150 1 9.012552879645886 7.917001707810963 10.486179989808896 0 0 0
96 1 9.420631678415635 10.213265807203404 11.027247969731274 0 0 0
959 1 9.713074292588562 12.673436278468088 13.338352095983526 0 1 0
206 1 12.301048113223864 11.285456103854688 9.645273397819771 -1 0 0
881 1 14.218492874169188 11.573598798867678 11.332638643592398 0 0 0
100 1 13.665135139738535 9.339917158386426 11.860822960180178 -1 0 0
800 1 15.925919734771698 9.532487607114204 10.743029663698941 -1 0 0
219 1 15.06799905770922 11.43390491008541 9.297737591110007 0 -1 0
29 1 16.912506412126653 10.25932658828368 7.701049682363719 -1 0 0
1510 1 21.06572706767769 9.086979016188907 8.686784499302881 -3 0 2
1069 1 19.393015766728325 7.688556378954441 9.975522402058559 -1 1 0
2592 1 17.777098159957802 12.154925537498347 8.228645319270534 -1 -1 2
941 1 18.012750856434202 9.767705035269827 9.864025911178432 0 0 0
913 1 16.70872594493344 7.620072421100566 9.704190496547755 0 0 0
2458 1 16.862832376899945 11.895503009189586 10.641139904740882 0 1 3
327 1 18.815989026535632 11.83264993267761 12.275565121821222 0 0 0
98 1 20.411614510788226 9.701480780682807 10.820290712038217 0 0 0
872 1 22.09493044255224 7.786907945779561 10.595350726925023 0 0 0
318 1 0.2285717450402855 11.813699016092459 10.701968017308875 1 0 0
891 1 24.05076033904973 8.671475529773831 10.468938054072737 0 0 0
710 1 23.19322735822673 8.547609782217826 7.85147890643156 -1 0 0
247 1 22.34661387055499 10.64828354379453 9.738761434480168 -1 0 0
1931 1 22.980325719484718 12.91131892912145 10.29116977026214 -1 1 -1
1855 1 5.685782501179484 15.6655985883106 9.68305435816248 -1 -1 0
122 1 3.3246329983640783 15.914332633096988 8.937675403374662 1 -1 0
973 1 1.8857136481193082 11.519569453554443 12.493914097781547 0 0 0
660 1 4.604243927960432 14.111624421041427 10.795631556104704 0 -1 0
27 1 0.26006404506485 15.487714593720382 9.64922760284659 1 0 0
330 1 2.1397088962306485 13.711144928526046 10.861117448577186 1 0 0
207 1 4.213167847282652 16.49375889116145 11.359882785644714 0 -2 0
1968 1 6.894018717802349 9.22801324249641 8.21573253587756 2 -3 1
2183 1 8.436530177386203 12.537738243071166 10.76862355731446 1 1 -1
2685 1 6.5657811705772895 12.938515758919399 9.24946747629676 1 1 1
84 1 4.047415644119749 13.491294446007057 8.44465360180827 1 0 0
397 1 6.052797612478111 15.194291689861211 12.23383956535653 0 -1 0
218 1 6.451234220973255 12.702359779190065 11.885083232327446 1 0 0
1011 1 9.551445325615159 15.573233645415243 10.089082299715676 1 0 0
963 1 8.857228747106145 13.662664811649801 8.784210097163392 0 0 0
763 1 11.427003590445668 13.816533379576798 8.632161207972858 0 1 0
114 1 10.755093395763224 12.658791879533391 10.390219644007292 -1 -1 0
1113 1 7.550069386886505 14.774905139420964 10.784301805020458 1 0 0
1660 1 12.106508625512092 15.094140708246803 10.483493421761267 2 0 2
2563 1 11.840443317180263 16.00541119594773 13.12453340714176 -2 1 0
2378 1 12.310577885581647 13.066907653584048 11.85168945948731 0 3 2
2185 1 15.699950344459197 13.535653849510354 8.594262744340934 -2 0 -1
1073 1 14.730642769288837 15.709283418489452 9.18388294484103 -1 0 0
758 1 15.146162733095398 13.776251329313936 11.008303642151292 0 1 0
63 1 13.567267882832503 13.538411406257424 9.353694042191236 1 0 0
310 1 16.057589269621403 15.582172528446305 12.096626586726636 0 0 0
766 1 19.292679002150237 15.581443382008844 8.96603704615746 -1 0 0
2559 1 18.741170304329508 12.86084387806226 10.036972517099997 0 1 -1
2264 1 17.237853401990726 14.79324272726864 10.25331433552859 -1 -1 0
2170 1 18.525682152921583 16.235954319418028 13.647104301569533 -1 -1 1
159 1 21.22242266613607 14.408302369527458 9.842479940271954 0 -1 0
1683 1 22.426571939639786 12.373035476741762 7.979253100330603 -1 -2 1
1478 1 24.40615917063564 15.453367543325246 7.618548529001901 0 -3 0
1417 1 24.512909434891185 13.543678390919645 8.893969830011168 1 -2 -2
1094 1 -0.07048784651896511 14.046086201497186 11.607423586501248 -1 1 0
1806 1 21.309016278571384 17.634761679617604 9.060311882224726 -1 1 2
259 1 20.606581487570658 11.847608928888867 10.800815185484144 -1 0 0
1134 1 22.397572009950913 14.671578813835314 8.023427964456648 -1 0 0
981 1 23.15207430929879 15.587716454673393 10.604412552174024 0 1 0
202 1 22.36556419330617 14.363221540970475 12.468111122796032 -1 -1 0
2267 1 3.720818120570849 17.904996731282004 7.177698612253771 -1 0 -1
108 1 3.0375455169449403 18.52203624057477 10.899840358471929 0 -1 0
1432 1 1.3735313095730346 17.472205037904615 9.240990607717418 -1 1 -1
358 1 4.52815651208554 18.79690353465176 12.694746137282284 0 -1 0
442 1 0.267133607952424 17.77911858836781 10.97534219037649 1 -1 0
42 1 2.7217662997709353 19.4157757319188 8.433420910905896 1 0 0
1770 1 6.193474813232793 17.621850274284327 11.772068393054695 0 0 0
1269 1 5.096715813057195 18.026156391956697 9.305187556613554 0 0 0
802 1 6.894586613035783 18.73768668513908 7.8793083372852335 -1 0 0
1162 1 7.217644432904906 17.26973547548205 9.715413151611987 0 0 0
667 1 5.114634085979418 20.06172800005482 10.445086166581842 0 -1 0
1758 1 9.23216217967048 18.395832159537385 8.952478659876345 0 -3 0
279 1 8.674145164078917 19.162476128367125 11.798041394001867 0 0 0
2322 1 8.481605183081163 16.953035639154706 12.469528600537878 1 0 2
833 1 10.729678420927087 17.72476079540654 11.11998788365154 0 1 0
1142 1 12.419448537039349 20.14499310618364 10.854076698615248 0 0 0
731 1 11.305788662874523 18.909890509041027 8.411065876122786 -1 0 0
690 1 11.415618459673691 16.678610670481916 9.28797950241497 0 2 0
2404 1 13.17313886160554 20.14323311654136 8.42789178746921 -1 0 0
606 1 13.732879252217606 15.904822812284355 11.831822183475289 0 -1 0
1062 1 13.121666158782164 18.12935010960969 10.237038240625026 0 0 0
265 1 14.516199565699258 20.277573862600065 10.090875974895198 0 0 0
1210 1 14.918561377928855 19.954053230873598 12.13997752679999 1 -1 0
2315 1 15.501401341913057 17.509370001645905 10.621231863921437 -1 -2 1
2433 1 17.29666828780003 16.89126140376053 9.072681899846287 2 0 0
652 1 17.72310915616356 17.7349314194718 12.106122654955541 0 -1 0
1096 1 20.004807388689684 16.52594428367575 11.13387952258925 -1 0 0
931 1 16.764690649319547 19.50919312835955 10.2378071218297 -1 0 0
214 1 18.9010848106972 18.24462233575955 10.257369881709694 -1 -1 0
927 1 20.103716263292966 18.640342575610525 12.568844248298399 -1 0 0
1254 1 24.372374500636838 16.15124485018047 12.598073692130392 -2 0 0
2680 1 23.555749485726295 17.317142713767197 9.11126923909881 0 -2 0
486 1 22.341935456848518 17.6902769053062 11.190225911586637 -1 -1 0
402 1 20.985677106652112 19.43898174838639 10.403305073043752 -1 -1 0
2527 1 23.536157274944237 19.649490739462223 10.923718328548855 0 -1 0
1132 1 3.688667435880076 21.754431629420843 9.02986212656664 0 0 0
757 1 24.707463921671362 19.53343011980344 8.754325595355816 -1 0 0
521 1 0.3696411615119887 23.480324373755927 10.247839918797574 0 -1 0
435 1 3.2142914534479803 20.65732156464508 11.460935025348203 0 -2 0
2464 1 2.1076227255462743 22.386497259221834 10.660530840537088 0 1 1
326 1 6.5947721243738915 20.120015213178412 11.994094322345036 0 0 0
340 1 4.877714438676016 20.417572004060517 7.756506018749735 1 1 0
246 1 9.107313657094528 21.466987973193014 8.655928718992632 0 -1 0
434 1 6.1811726713174995 22.083512825592535 10.15461456615195 -1 0 0
1481 1 8.448173661400027 22.416635824803535 10.93316683893306 0 -1 0
2496 1 7.498984801110527 20.290863168281447 9.454713936792427 0 -3 1
325 1 10.823227633097153 21.172552884551685 7.670794824806636 0 0 0
1669 1 9.879761290045394 23.81123095953103 9.732435956240494 -1 -1 0
835 1 8.976006584511094 -0.08258489880503947 7.762768769430346 0 1 0