LAMMPS data file via write_data, version 29 Oct 2020, timestep = 150000

2016 atoms
1 atom types

-0.24212179716704796 21.506121797167268 xlo xhi
-0.24212179716704796 21.506121797167268 ylo yhi
-0.5649508600552196 50.18095086005433 zlo zhi

Masses

1 58.933

Atoms # atomic

1669 1 2.6471967168992583 1.3743367907589754 1.2027773863350097 -1 2 1
1017 1 2.3158529078618875 3.6153941966317205 1.1080450733948786 1 1 1
1799 1 0.7689336782217593 1.976888141478538 4.610633938024025 -1 3 1
6 1 0.3945168080086523 0.42969690808546923 2.6668734365637126 0 0 0
1063 1 0.6376234549315816 3.2028836571323303 0.08559345815900554 0 0 1
1441 1 20.831732664946486 2.2249286383028823 1.6780360659703164 -2 2 1
1746 1 7.289458881317417 2.1821743719397633 -0.5339547679655203 2 3 1
204 1 7.72030772486256 0.8543667896824698 3.0261620720692917 0 1 0
1881 1 6.207277451175013 1.623766333113005 1.283677550507746 0 1 1
19 1 4.565038464014797 3.299211593202502 2.907899894141772 0 0 0
148 1 8.255265539737373 0.3066865423100418 0.839107171616309 0 0 0
1701 1 12.649426944172832 3.057422475335318 0.2901835538555715 -1 2 1
335 1 6.555844012011585 0.658342739806853 4.91886001011042 1 0 0
408 1 6.6463552822783285 3.2204220151737335 4.068744018877825 1 1 0
249 1 6.501754838282118 19.423913824703693 -0.14621571395523048 0 0 0
1214 1 9.41890663459338 2.7112477844060625 0.7737413187726152 -3 3 1
1018 1 12.353309009563198 1.8216865884201217 2.7324181224105186 0 4 1
498 1 9.053374869610469 2.9531822988337804 3.0313296976053037 0 1 0
381 1 16.0520743366886 6.304811964236143 -0.5236982033919576 0 0 0
107 1 12.79437192584374 3.4160974931585253 4.511875198782016 0 0 0
425 1 6.516913212474418 3.9446392486523933 1.6029464950825885 0 0 0
1354 1 11.456486039981266 1.0220205715910071 0.42580403343430806 0 -1 1
382 1 20.847273740778462 5.554174164239895 -0.5359381807938645 0 0 0
55 1 14.160027707917694 3.628545558649086 2.679605212443653 -1 0 0
1416 1 15.961434959300952 20.98723980986802 2.6537615605125944 2 0 1
1513 1 15.273955641064846 3.0963142351215263 0.46662745548100526 -2 1 1
1175 1 15.915187163913892 1.4898084474996933 1.8894063340321785 -4 1 1
95 1 13.840993032762803 0.6199783844850639 1.3816764363944076 0 1 0
1879 1 18.44459321202168 1.897229903320004 1.3316224057018848 -2 5 1
1581 1 13.919678036400198 0.7332353543488165 4.082898592492843 2 0 1
1247 1 6.859773341734852 17.097513179906425 -0.4525984719791943 1 2 1
439 1 19.468758819074893 3.7508429352718333 0.25953036908746396 0 0 0
1346 1 20.862508226312546 3.344113473280406 4.005828225350245 -4 -1 1
842 1 20.927374560651618 20.299238434660495 2.1722981345311916 -1 0 0
208 1 20.30732791366066 0.28973716711344266 0.9896973331004579 0 0 0
210 1 20.286226900553686 0.9367476411065638 3.789156466056961 0 1 0
1225 1 8.203453238711571 4.52359922582941 -0.26949457757978845 -1 1 1
1365 1 1.0960451186302178 3.0434780358275106 2.7138995633861005 2 -1 1
370 1 21.45666968368849 4.659155468630112 1.7477652283737726 0 0 0
1549 1 1.5124924066143153 5.7998512037950904 0.3796194034562702 3 2 1
400 1 2.0186003229975 6.997965750915864 3.9300432592041217 1 1 0
1079 1 1.7616003855636042 8.094148589612859 0.520098736648118 1 -3 1
81 1 5.730066228999666 8.08733298368946 1.2722838418774034 0 0 0
1952 1 6.984502107945082 5.964841226151715 1.4549233389615583 3 1 1
2002 1 5.409280265369605 5.910621705422898 3.1973718676808924 2 1 1
1873 1 7.8717014514137595 5.376348841390546 3.3066893516957734 0 3 1
645 1 7.520188235893385 8.057805995835558 3.3730942430701294 0 0 0
1226 1 20.916160341750338 20.181428282066317 -0.4725276280086125 0 1 1
609 1 11.22093259992089 7.856090049762633 1.7209541626684843 0 0 0
607 1 11.287975723817507 3.8052804192560252 2.1521929925707277 -1 0 0
1296 1 9.733426247478757 5.4421213308288445 1.6298305624186775 -2 1 1
1055 1 10.920857039414226 5.646065079000709 4.38926674458282 2 2 1
581 1 8.748304018976755 7.680836805271083 1.3854732477773455 0 -1 0
733 1 14.149974659700874 4.931251989243781 -0.355611513802112 0 -1 0
2000 1 15.30820488162958 5.719367746185504 1.7070885348666396 1 0 1
103 1 13.894672379864158 7.475852235935602 0.7186280393115942 0 0 0
397 1 19.105416837163325 19.006263968474652 10.264369881705258 -1 -1 0
191 1 12.681774040030472 7.806104507627012 3.104146666308153 0 -1 0
1768 1 0.34360079537944666 7.362772313330791 2.095655321293827 -2 2 1
206 1 19.081830996180035 3.737950094616471 2.5348800183902105 0 1 0
1097 1 17.110511992581642 7.020696839046013 2.4262552849464973 1 -2 1
282 1 19.13832126522225 6.148602941047306 1.7307195033060543 0 1 0
296 1 20.180016314953633 7.518384034585594 0.3541505959103636 -1 -1 0
75 1 18.08191294663894 7.685038304611238 -0.10326058057995713 -1 0 0
358 1 18.926068458337724 8.149131019349381 3.375733324712864 0 0 0
138 1 17.259949032465883 4.360882559500134 1.0050744718358136 0 0 0
394 1 2.1336434674135503 11.080837179382721 0.9958965646854567 1 0 0
613 1 3.542390820611925 7.181654137589048 2.064251346223759 0 0 0
541 1 3.555520674950494 10.164855550418988 3.4827920669763257 0 0 0
147 1 0.14536560179239116 11.617046966167225 2.6554708761205412 0 0 0
41 1 0.33082769242894083 12.194648339536897 0.48016589555990574 0 0 0
1478 1 1.5463635635251947 9.379722208192664 2.6606578462182298 -1 1 1
574 1 7.1871029707786915 11.84016987834189 0.026339678314561188 0 0 0
1782 1 3.811666712240842 9.66404554888538 1.1355784286483002 -3 4 1
180 1 7.43016573764653 10.418469868622093 3.5153186138806145 0 -1 0
1718 1 5.188235360747193 8.566944196033335 3.5007639002164295 -1 1 1
1560 1 4.802035433844719 11.328056388443331 0.02679606294018788 0 4 1
96 1 4.203928116280715 11.899963819661497 2.2293718252926857 0 0 0
213 1 5.745209429284431 10.45346329817382 2.0671886399534816 0 0 0
820 1 9.43515855604605 10.094530699215401 2.0130352967847616 0 0 0
242 1 9.475454131337605 12.609052631413332 1.7588272358109966 0 0 0
1902 1 11.684254045598749 10.251929174201457 1.6176849284423738 0 2 1
1297 1 17.01540184675138 10.627356015623402 11.579245818274297 1 -1 0
215 1 10.423664655272995 8.87216958803555 -0.00030244931873724124 0 0 0
455 1 4.595879423353803 4.977086414402706 1.22453105824471 1 0 0
1645 1 13.770612578583078 10.078826675302963 3.233962270506845 -2 -1 1
588 1 12.352866967838684 12.070179879080108 2.469529821591755 0 -1 0
7 1 12.809574536065234 9.076359082451829 -0.35723551024785494 0 0 0
1123 1 13.747125036950607 11.320475142514201 0.5714489236333833 0 4 1
1565 1 15.961086836565656 10.55910399023002 -0.08326278407276166 0 0 1
385 1 15.104370394326665 9.374255795563753 1.685447317261489 -2 0 0
92 1 17.2087806545409 9.071799701881949 1.437615086534397 0 0 0
257 1 16.027357939861044 11.17504679755325 2.478582664042995 0 0 0
69 1 19.35201410381263 9.667260436378792 1.0060989494114383 0 1 0
5 1 -0.18959371237370726 9.453783747307025 0.41250805748487074 -1 -1 0
1654 1 20.67978886759201 9.479485210849946 2.55422811436243 -4 0 1
625 1 17.923043027872783 11.539193876968653 0.8048040600679356 -1 -1 0
533 1 19.808645531485933 11.953424785188995 2.0274198224571136 -1 0 0
576 1 18.160308729169667 10.555529055045517 3.1548215199178027 0 0 0
1762 1 2.0058945033824225 16.72623085836274 0.7776857316471675 -3 -2 1
564 1 2.514282676747576 14.817262885289887 5.021717578218038 1 0 0
254 1 1.8554693412266747 14.46991986133703 0.43267785976292505 0 1 0
1854 1 1.6872849517319488 15.62075768207144 2.9594587204859297 0 0 1
146 1 2.2321238083041512 13.343453567745708 2.832408976884971 0 -1 0
962 1 21.44216384689252 16.07082050102436 1.2884972578416714 -1 0 0
485 1 0.1383535738525271 16.759114476145022 5.192693690966952 1 0 0
353 1 7.48975718033325 9.490071426736533 0.45047172865573626 0 0 0
1099 1 13.02226518924071 20.39788865732797 0.44170479504840454 0 0 1
179 1 8.248335669892905 14.274321292599874 2.5216202271561077 0 -1 0
246 1 6.289598874129733 15.454645386663366 1.8199733795386477 -1 0 0
1189 1 5.7887765798822555 13.300691923683333 1.1644923833587657 -3 2 1
1437 1 4.293468687081367 14.494276625650212 2.990837346814552 0 -1 1
1377 1 4.05290729646357 14.871210220521599 0.6198316745811236 0 2 1
187 1 14.066316405669655 18.529816341672564 -0.37140301811481247 0 -1 0
1592 1 10.408055898528731 14.253779584750266 0.9141624088584173 -1 -1 1
1721 1 11.57415940755406 12.497072995306398 0.4802256047111437 -2 1 1
1467 1 10.814044271576458 16.404428639193355 2.0182449041421613 -6 3 1
116 1 8.49361465125049 16.770348086306466 1.857668762997394 0 0 0
515 1 12.790851334055256 14.325831451607218 2.635405117132169 0 -1 0
305 1 10.647458964132856 14.712711788051417 3.6062864722854533 0 -1 0
1795 1 13.132902226257208 13.905570979991012 0.5299589218696572 1 1 1
65 1 15.475341187729796 13.0231411581464 0.48344585284661745 0 0 0
503 1 13.157682702815585 16.153881951396077 1.108388721457583 0 0 0
1275 1 15.378569157958372 14.732950873890857 2.2833884957463386 -1 0 1
614 1 14.22598176605178 12.314463220783523 3.6750268975397553 -1 -1 0
1514 1 14.050324271920491 15.813419993826134 3.64596113878513 -4 0 1
603 1 6.328887506892965 -0.0036389995815893916 -0.41488437268641654 -1 0 0
1660 1 21.114385253959032 14.265822795849843 -0.2909641538638674 1 2 1
57 1 0.11284510110895285 13.98370267106382 2.1199784579504146 0 0 0
200 1 17.412752882716028 14.062535620516222 0.6464719980269895 0 -1 0
289 1 19.15337417046823 16.98371419184321 1.4094058593829866 -1 -1 0
1910 1 19.600657617572338 14.194435282854569 1.2214105054654574 -2 -1 1
319 1 17.140092631165047 16.288386288124407 1.6289664429266546 -1 -1 0
1307 1 1.7125400312639818 20.97009852084874 0.6360032265271136 0 0 1
1054 1 2.2599724432565487 18.918117104365518 1.831320260638015 -1 3 1
841 1 21.49133971001836 18.211942966013396 0.8744291668058588 -1 0 0
279 1 2.9047106637559725 20.857981772144626 2.6607020641785737 0 0 0
1824 1 4.22952810475654 21.24730702862434 0.7377058520327637 -2 2 1
1977 1 6.423237752874573 20.79386171345358 1.6685182715278586 -1 3 1
82 1 0.7416340342639814 18.161796067968147 3.1149627160136104 0 0 0
1995 1 4.342226673218933 18.81360751540305 0.5783217115747774 2 3 1
1646 1 15.062129234127788 14.366634347714504 11.610114675612376 0 5 1
32 1 4.906750007294929 16.69653198201754 11.888947780043543 0 0 0
1202 1 3.9774746677641133 16.53734699441831 1.9695248961198208 1 1 1
119 1 6.297951411862915 18.080805705982737 1.702166161296526 1 -1 0
1211 1 5.92104509901768 8.145329495419052 12.097577524577355 -1 3 0
1066 1 12.302919032673174 5.847535378159531 0.16697445087445184 0 2 1
176 1 11.15321341932616 18.284097855042177 0.26031276529018044 0 -1 0
704 1 8.48340776395494 18.826070100656466 0.5530613128906816 -1 0 0
1864 1 10.196916274879962 0.7501435437918813 2.40804909131434 -1 -2 1
1482 1 9.967027747933642 18.658175674520024 2.2749112108511826 0 -1 1
1755 1 10.293157493544278 20.618592235826704 1.1145024049201968 -2 1 1
929 1 8.176046658773581 20.16970827415477 2.4726050149792727 0 -1 0
637 1 10.15986147064596 20.40984952282017 3.7528675040184147 0 -1 0
428 1 12.226211480460153 21.1837044771822 2.4828009317542232 0 0 0
1115 1 17.8812164956982 21.174861359843764 0.5166360264845735 0 -3 1
1330 1 14.466154632482422 16.775638977589836 11.588648569836531 2 1 0
415 1 14.104804484657501 20.014885159377172 2.713827468094729 -1 0 0
209 1 15.21259299853097 18.047505085195315 2.023105338242396 -1 -1 0
620 1 12.836434405509518 18.282029345090596 2.062403818248455 0 -1 0
175 1 15.467708142065115 16.548622272659575 0.2561041398146222 0 -1 0
1624 1 8.113777218164149 14.536968263053048 0.10252522413175569 1 1 1
144 1 17.061376431988933 19.48699832363933 1.4544131817732358 -1 0 0
1628 1 18.50742255416106 -0.10698567481961938 2.502862074642794 -2 0 1
865 1 19.30181628034085 19.32146812716828 0.8332954188164772 -1 -1 0
468 1 20.374214402541195 18.295207252780646 3.246475806520027 -1 -1 0
250 1 0.544744799279227 20.265242245498467 4.151001697603141 0 0 0
350 1 2.9958240820388014 1.4617062295438144 3.540453666347047 1 1 0
1399 1 2.66140362937826 3.7041176690028896 4.484412303833037 -3 -2 1
290 1 4.168922456624286 4.08889456081289 6.958244144496262 -1 0 0
641 1 2.315359964914704 1.932045060908529 6.282582125145386 0 0 0
1880 1 4.376822674676854 2.3088877458661443 5.0271258374576675 0 5 1
367 1 1.901031894967418 2.8836866621701582 9.000923898586867 0 0 0
280 1 0.3924173588251222 1.5085560163695892 7.650683719669194 1 1 0
572 1 5.308243537931303 0.3160044254394787 7.1274162398723675 0 1 0
422 1 6.123642095991393 2.3468551189789255 6.608120693361914 1 1 0
1391 1 6.682207100633237 20.301757130848703 3.987614982782703 -2 -1 1
483 1 8.46907891176022 2.1480489994433776 5.237641133494645 0 0 0
784 1 8.528181938475731 2.832437567037208 7.715268729918693 0 -1 0
334 1 7.225945642584219 4.322686153726687 5.963312363521222 1 0 0
1629 1 11.787792435287072 0.015835032356403378 4.961104751036866 2 2 1
430 1 8.811066694889682 -0.0808592742287424 4.9432183318444265 1 1 0
167 1 11.077606483140714 2.172358257918042 4.580060007607392 1 0 0
440 1 10.450297987077757 1.2135501753572582 6.8559880479771556 0 0 0
306 1 12.468745450551888 1.9792217247379327 6.477047240693195 0 0 0
699 1 8.194414360830658 5.176271280401512 7.817918100036497 -1 1 0
1502 1 14.632323318810634 1.7259641314952123 8.373801657377033 -1 -1 0
499 1 13.179710857734996 -0.14127007935393984 6.821846529517568 0 1 0
1600 1 17.475291261847424 2.198437745017004 3.622860093674414 -2 -1 1
761 1 16.54493021591774 0.44666536048110395 4.624120759557347 0 0 0
235 1 14.176205231171103 3.8186962241464 6.032948308743908 0 0 0
421 1 14.90555249039306 1.6875496608831937 5.953804107196126 0 1 0
177 1 13.242365729320452 3.9312287302916404 8.476450090852794 0 0 0
799 1 20.680716631199864 2.3595941771449094 5.8871268486020645 -1 1 0
1475 1 18.793265261719675 1.2433848910613352 5.41382936073607 0 1 1
48 1 19.67494993467666 0.8568052130637875 7.707456934480785 0 0 0
195 1 16.96786434934394 4.090641078736932 5.8853074143584125 -1 1 0
363 1 18.86200031848923 3.9348713678004543 4.910418710991799 -1 1 0
128 1 0.8790131832295738 3.655989978505118 6.4247147262607776 0 1 0
1312 1 18.83485793454647 3.387667510202277 7.237197276361264 0 -2 1
475 1 1.6872535555515862 9.015769601167031 4.982007658751072 0 0 0
654 1 0.8250730381093074 5.200455670289859 4.051869440207957 0 0 0
677 1 2.6713311817277283 4.983461469165819 2.826288549193013 1 0 0
443 1 1.9768932179339735 8.505825247985419 7.339329650180434 1 0 0
49 1 2.793859508869076 5.944016763715454 5.637140600137309 0 0 0
402 1 0.5523937316928639 6.660632410437533 6.458982503064441 1 1 0
1630 1 5.958405278729353 6.903900211252428 5.532271882688323 -2 3 1
1223 1 3.867682027610189 7.9055775848630265 5.3883621452740105 3 0 1
1434 1 4.921920081644331 4.733701725111249 5.000946409670392 1 -1 1
416 1 9.957649084016671 3.845934312215295 5.545126861594367 0 1 0
27 1 7.10717088043126 8.918120811816092 8.02607729957786 0 0 0
1389 1 5.856636633460298 5.736372471979413 7.2900688398188285 5 4 1
1573 1 7.116863851519537 8.90404828847933 5.540620282436561 -5 -1 1
171 1 4.860429219828612 8.606070548242592 7.291821685483516 0 0 0
344 1 8.727308682291412 6.5966311161508555 5.415411019579931 -1 0 0
172 1 12.638669048769867 5.684627458414369 2.1554769170312618 -1 0 0
811 1 12.26134827363747 4.926911961492949 6.1276891527450745 0 0 0
229 1 12.719111782468419 7.039121056512952 5.317298124282678 0 0 0
396 1 10.27576288489394 5.71748690559017 6.714105405616401 0 0 0
1278 1 11.807631755684843 6.296857080734816 8.25297093978971 -2 1 1
433 1 15.543521336631152 2.786261218485096 4.156531984806245 -1 0 0
220 1 16.793282121338493 4.713911156764233 3.406033499242926 -2 0 0
328 1 15.102524968596121 7.568398066217154 3.369693391046613 0 0 0
199 1 14.30474657423728 6.096202956384538 7.463556422607391 0 0 0
1663 1 13.982460527998265 5.3103452579082235 4.128701985625503 -1 -1 1
264 1 15.796177634582087 6.042374968149273 5.132692260215141 0 0 0
151 1 13.326618914394048 8.605387151978686 8.12329614387435 0 -1 0
409 1 20.374302162879445 4.593529134917182 6.237851771328424 -1 1 0
364 1 20.38382512440513 5.770548766351577 8.101865131483452 -1 0 0
337 1 18.271790014027165 6.094651339506931 4.753859877147315 -1 0 0
51 1 19.906780753291162 6.933613944187962 5.688938057643056 -1 0 0
360 1 20.38273136547512 5.3857125209976955 3.837590570720777 0 -1 0
297 1 16.912504870934473 7.619277053850187 6.4432986989988885 -1 -1 0
608 1 -0.06196687033845716 7.379902631126622 8.741362507778751 -1 -1 0
263 1 1.5237601671033634 11.552532522688164 4.582251747502672 1 -1 0
1030 1 21.061211401052716 8.60231368776931 6.5161350270210034 -2 0 1
298 1 2.03572509399782 12.644717277330445 6.663237109080776 1 0 0
679 1 3.53237721018457 10.385731846977796 5.8787571844604365 0 0 0
648 1 3.7106638228677986 12.879550544180963 4.97492645702871 0 0 0
33 1 6.042564892456855 11.045681170470495 7.296933517713861 0 0 0
1657 1 6.020151715372673 12.947209098288853 6.2130647633354155 -1 0 1
789 1 7.864868198362817 12.827660680211947 7.479371640013467 0 0 0
217 1 5.669708891167017 10.987310835932512 5.047740420742324 -1 1 0
692 1 9.377331659812482 9.63932614006582 7.40569375154275 0 0 0
303 1 9.594587447571266 9.397912183968325 4.9678266100198885 0 -1 0
135 1 8.287506462454827 11.101572507614684 5.737269706372384 0 0 0
20 1 9.752147734266416 7.55174133567242 3.5645041331798843 0 0 0
463 1 10.90192827603755 8.041562746151804 6.8842445539767985 0 0 0
398 1 10.707521987466531 11.298335781018409 6.0730993935799935 -1 0 0
158 1 10.98871002037236 10.608951254690728 3.859279644918307 0 0 0
375 1 12.018766395089933 12.445207803617224 4.475229036389051 0 0 0
295 1 12.110804699614624 9.166761965536894 5.2413711287849045 -1 -1 0
97 1 14.436543266953844 8.537782315400039 5.472836032122041 -1 1 0
619 1 13.246588758031582 10.919598359677545 6.514286273561571 0 -1 0
770 1 15.121851147036324 10.540072731227811 5.171665542615947 0 0 0
517 1 16.92836308993516 9.174567131445711 4.2179379431989235 -1 -1 0
889 1 16.664572228974848 12.564764733722562 4.658758258147509 -1 0 0
584 1 13.767468102565816 13.001016272260651 7.909148741017468 0 -1 0
132 1 15.294734459484323 9.461857382078142 7.354839576838478 0 0 0
372 1 15.455760961468153 11.955548526761719 6.7951052421314095 0 -1 0
45 1 21.324179629606885 10.325367249282404 4.563071684504287 0 0 0
1325 1 -0.2350921874989993 7.957997857033753 4.313598129803386 0 -2 0
309 1 19.1165088289326 11.587830568614708 5.186132761484312 -1 -1 0
492 1 18.775918656991568 9.059911847106278 5.5993919478955565 0 0 0
559 1 20.108434310977835 10.629504898298235 7.761895528130768 -1 0 0
261 1 20.894967700714158 12.48918225251863 6.348230544261942 -1 0 0
1528 1 17.21898302398021 10.623639433774448 6.489886148768728 -5 2 1
460 1 3.8610137403652294 14.335102251515973 6.926256949735092 0 0 0
472 1 2.933532519049515 16.642152286248447 6.406817801268187 1 0 0
578 1 0.7530093589231472 13.647952046338618 4.767781906019114 -1 -1 0
1306 1 0.7311556540005537 17.179163274123283 7.88914988485776 -2 2 0
885 1 0.9503577628969864 14.878525924493825 6.781389480698203 1 -1 0
239 1 2.384394783031764 15.888739123544124 8.716514379300882 0 0 0
1179 1 2.884905886342258 17.42988825814533 4.1675782625629445 1 1 1
60 1 6.7376116408071285 14.94742227974732 7.442865947519266 0 0 0
1618 1 6.558927745223943 12.719511868300453 3.585031994112219 -1 -1 1
1489 1 7.549499265135846 15.813455210983143 3.9372478722854485 -1 1 1
854 1 7.627597415627055 16.977043743652317 5.923324324979792 0 0 0
120 1 5.307428702728255 14.74226372741982 5.34205137842835 0 0 0
1658 1 5.4552508327272164 16.840478935985413 6.916969727468343 0 0 0
518 1 7.930332083915911 14.094409904912718 5.373396762337963 0 0 0
1936 1 9.348037394264258 12.21137698201682 4.124265171681781 -4 -1 1
22 1 10.006653570382536 15.908970182263324 5.435436544265193 0 -1 0
444 1 12.18191840608457 17.22139576830811 3.7839487542821795 0 -1 0
561 1 9.840327960224787 13.597169484025663 6.024726846157156 0 -1 0
351 1 12.241911317842119 15.543005304559042 5.35599068689832 -1 0 0
470 1 10.315888834454197 18.294406921967155 4.41840782272435 0 0 0
1261 1 14.384704195784376 13.915933663314512 5.372264959573274 1 -1 1
690 1 14.841913584908287 16.366782155794894 6.195213548943132 0 0 0
944 1 16.315650357411286 14.888594044675095 4.53445632147855 -1 0 0
313 1 17.694872154726266 13.10468655151926 2.8692399801250397 -1 -1 0
1706 1 16.33430821281899 17.08124824320975 4.019853853800966 3 0 1
718 1 20.073797126900057 17.201059391732446 7.482345849809194 0 -1 0
108 1 20.90565522317862 14.59238530721211 8.023690186036175 -1 0 0
673 1 20.590404705173174 14.670385379358297 5.63754974939814 -1 0 0
1417 1 19.851608317230507 13.39302655978784 3.871922835982266 0 0 1
862 1 20.76235436805018 15.743848720202495 3.5575036126771034 0 -1 0
53 1 18.41505507467167 15.504004149113577 3.375059707016126 -1 -1 0
818 1 17.99482552138275 13.642799937024547 6.001881139175529 -1 0 0
479 1 18.709977329758452 15.113863101741066 7.265947834651357 -1 0 0
376 1 3.000788509096621 19.48473748237619 4.491244247335238 0 -1 0
898 1 4.718789634187835 18.524234851620974 3.05060420647873 0 -1 0
864 1 2.3126182890207567 -0.1698040100762782 4.809871764169438 1 1 0
710 1 1.544658337368752 18.53524790618772 5.928572788925261 0 0 0
757 1 20.596155761444972 21.451715193245686 5.920575764810949 -1 -2 0
519 1 20.910650992596622 19.115686183642254 5.822141981043096 -2 -1 0
431 1 0.9809427159873858 21.278469380333703 6.437682905306014 1 0 0
996 1 4.47269339810952 -0.1367611649766296 4.9930029513088545 0 2 0
585 1 5.010290755290042 16.808983001157255 4.637507217873651 -1 -1 0
168 1 5.086694696512036 0.5669317416273971 2.994973624363994 1 0 0
203 1 6.439546452709872 20.433080451122883 6.439663290915272 0 0 0
1104 1 4.918293106335409 18.884245934613695 5.561065376348428 -1 1 1
827 1 8.341222850740639 0.37477767279151164 7.274500364415544 0 1 0
392 1 7.195374979883243 18.4227659460219 7.775478314114945 0 0 0
1403 1 8.563002289002766 19.554332929428583 5.600994094105774 -3 -1 1
331 1 10.91897476136135 20.19124324239336 6.343958040604155 1 -1 0
326 1 12.352256479746279 19.522021312753314 4.121338900248754 0 -1 0
79 1 7.060919690479911 18.1955477124675 4.123571005691741 0 0 0
1508 1 9.621369185471147 17.770359619682267 6.790139940792538 1 3 1
1735 1 12.027171710661907 17.611125046264455 6.238856279465644 1 2 1
491 1 9.070409064398579 19.748981797051503 8.069105699705583 0 0 0
1637 1 15.68820316684384 21.17250930201917 6.959467374788988 -3 -1 1
198 1 14.260794931413075 17.824248012168052 4.350490965216799 0 0 0
322 1 15.760420558185892 18.51534312723074 6.384595726173277 0 0 0
554 1 16.49348170848296 19.512817095943255 4.042552532107528 0 0 0
1 1 13.262809341803788 19.454925881443092 6.309174974798499 -1 -1 0
4 1 14.754152080254428 20.837037538417196 5.151059999869154 -1 -1 0
71 1 17.98792307069741 20.91427645376483 6.157870951433025 0 -1 0
224 1 19.223020151078217 16.90036753702435 5.2966223819541245 -1 -1 0
410 1 19.474406169640844 19.764227471231585 7.553140187166926 -2 -1 0
17 1 18.155556717905124 18.048352256204083 3.3041386260133936 0 -1 0
34 1 17.079449468628138 16.11584930858918 6.105770142024767 0 -1 0
489 1 19.12534613775281 20.157513938856464 4.392571148448772 0 0 0
1488 1 17.956678940875097 18.248079278159608 6.974102938977599 0 2 1
538 1 4.189733568154253 4.218716975687615 9.31237442582689 0 0 0
593 1 1.7644675505998992 3.257310365144715 11.327838894214109 0 -1 0
291 1 0.4620377893276648 1.5924690180825039 10.432197070825877 0 -1 0
893 1 21.393669886934294 -0.1808893796251861 8.63971597187666 -1 0 0
767 1 2.378577935651644 0.48985499376992836 8.020041742129814 0 0 0
221 1 3.451607779877047 1.582592122709352 10.49615437192019 0 0 0
1025 1 7.730220073352418 1.9126785655315874 11.045376990739783 2 -1 1
1410 1 4.411774103019405 2.0430968630714537 8.374812202089993 -3 0 1
1889 1 6.944565985187493 1.4514246336637562 8.943074455358378 -2 -2 1
586 1 5.514526562345522 2.7154087184947326 10.496643634228658 0 0 0
527 1 4.944265692275742 14.39713715953132 11.948676833127347 1 -1 0
284 1 6.495160238974432 3.963267762935936 8.650462914932966 0 1 0
1462 1 8.541795365364512 3.632732712536223 9.869930276257824 0 -3 1
881 1 4.147568169569699 -0.23570891960754903 9.405224550734651 0 0 0
1181 1 10.656162634214537 3.6699725274690413 7.729774781170995 2 0 1
551 1 8.637083623327326 21.367976608534466 10.580663155357655 0 -1 0
1542 1 9.664544292014643 1.2081325285381161 9.283599007699518 1 2 1
163 1 11.782215500261358 2.0178502107250553 8.857708811672019 0 0 0
1358 1 10.321566190752185 2.9388106376178196 10.858269872170355 2 0 1
582 1 12.764465084806954 2.9757480963977883 10.562291465396777 0 0 0
775 1 10.984524622546047 0.37875736742299493 11.297572736813716 -1 0 0
813 1 17.259576165181098 1.0602088376915757 7.001563386633226 0 0 0
846 1 15.947434849388312 3.4081291723031604 7.828932156049831 -1 0 0
555 1 13.326340359301138 0.8477908001286736 10.05603558593446 -1 0 0
714 1 15.460703441378847 2.6549705283131995 10.52030147841699 0 0 0
707 1 17.034453027433894 4.518562476509527 10.523734621840621 -1 1 0
667 1 17.531700668269 0.5544536036666463 11.494982014724028 0 0 0
848 1 21.07009624151249 3.3050534840617454 8.605549374637437 -1 0 0
266 1 18.913063972996788 2.4494507761010262 12.075279702978435 -1 1 0
412 1 17.77868945134799 2.1778399769430714 9.288695633736767 -1 1 0
723 1 3.9254988385673526 21.16983538257784 11.574765142582214 0 -1 0
386 1 16.643695713033377 -0.07596801074091009 9.081867932454552 -1 1 0
160 1 19.82855336855705 1.726412735612968 9.871902700932015 0 0 0
441 1 4.438183839262704 16.72060419877638 -0.5466052463089198 0 -1 0
407 1 20.042514967598645 0.29037664229352755 11.837333767202416 0 1 0
717 1 2.7961400481088154 15.40026728765082 11.088507309477352 0 0 0
222 1 2.330737302981839 8.011385842566623 9.575369865185019 1 0 0
691 1 3.7205092857926365 6.425362403523204 8.248651851720268 0 0 0
368 1 1.6357773483219509 5.254266913215703 8.636286319969784 0 0 0
59 1 2.9038829413373115 5.5890114011468395 10.678268255501834 1 0 0
387 1 1.068721989988177 6.685114275494774 11.372979236549345 0 0 0
12 1 7.304695116026762 6.827986712843725 9.52798933417307 0 0 0
693 1 8.807399899304745 7.241827893178296 7.720481190175912 0 0 0
137 1 3.6993636600656066 7.667981395600119 11.501091218283984 1 0 0
192 1 7.5661880429261705 8.73067951534108 10.856510336951793 0 0 0
464 1 5.250486007492738 6.211845580842295 10.01760170696421 0 0 0
343 1 6.681801858507266 4.925929326726111 10.910993260087785 0 -1 0
1890 1 9.90644233535663 5.698994473395031 9.200189781238363 -1 0 1
434 1 12.188570779343799 5.244612697821276 10.289400601491367 -1 -1 0
1406 1 9.609325610574134 7.456320594122045 11.177905628077525 -1 -2 0
1098 1 11.83450456868676 6.837992707731472 11.649973999515664 -1 0 1
362 1 9.416783366251343 5.153804436528463 11.43888581060196 -1 -1 0
374 1 11.275225458684409 8.193957728661578 9.425716646650713 -1 0 0
655 1 12.319684035920574 12.41268078799288 11.24663721607519 -1 0 0
484 1 15.727905802695325 7.523416627496911 8.466612956407756 -1 0 0
453 1 15.582288825463381 6.677245667276075 11.38775619948584 0 0 0
252 1 14.863941301923322 5.242661945701085 9.692724032858195 -1 0 0
651 1 17.054585277428586 5.618591426962389 7.285712337041432 -1 0 0
1699 1 9.563303740858498 17.89865263678355 11.275987416074855 1 1 0
719 1 13.63746787030245 7.459058673112813 10.192174051082983 0 0 0
666 1 14.942901614469173 9.458501729529438 10.440003138686462 0 0 0
568 1 0.1514015954689259 4.391142401823831 10.406079934276795 0 0 0
247 1 17.98081085161264 6.422561515190077 9.36249706748951 0 1 0
356 1 19.2696751500698 4.2555079105071 9.861778394479252 -1 0 0
226 1 18.97403514035337 7.496506147770746 7.672566833929382 -1 0 0
207 1 20.045619606929964 6.796661792699132 10.45850664715844 0 0 0
501 1 -0.13122933449856333 8.90934684210566 10.887536296689287 0 0 0
1282 1 0.3942078476623244 9.591091993281415 8.611260075851174 -1 5 1
657 1 1.404092194548947 12.100790065171957 8.798603742793436 0 0 0
523 1 0.9869381270934572 10.704096883972674 6.761111825027755 0 0 0
1693 1 2.3305479011347474 10.101818604549777 10.199493683851502 1 4 1
802 1 6.182201528265327 13.299833018324176 9.078828974176663 0 0 0
174 1 5.537555513174931 8.383419715034124 9.56160074623567 0 0 0
1130 1 3.701005046488179 10.199349832770354 8.44915831060493 -4 -1 1
446 1 6.678953572364599 10.9321451557814 9.350239377782504 -1 0 0
814 1 16.799414357471786 19.761563246546952 10.820043378029194 0 -1 0
1775 1 4.414089158363034 9.833014548261975 11.027816595355542 -1 1 1
1334 1 4.349494641802086 11.863499862113004 10.166393054617442 -3 -1 1
726 1 2.501621859535652 13.075204458173955 11.137010852624494 0 -1 0
227 1 11.618110889072069 10.368255842501593 8.207173296461667 0 0 0
388 1 9.559254946219154 11.793868652179887 8.08956987249413 0 0 0
1554 1 11.843297217882828 13.60416902361149 6.796305988817091 -4 2 0
123 1 11.890402254247224 12.574647881349144 9.08660650167077 -1 1 0
560 1 9.357345216839127 9.492740876400445 9.760029765190913 0 0 0
1954 1 12.50352662514874 9.528270870993797 10.714944321536626 -1 6 1
43 1 10.899760104488262 11.022353604528266 10.451237759077802 0 -1 0
1606 1 13.808469061765923 10.937672695486333 8.887791680076328 0 1 0
753 1 16.195747793234904 11.076294085878722 9.066073728609656 0 0 0
2003 1 4.3298656712822154 2.410995058282287 0.37385323889208977 -1 5 1
1518 1 7.872637245688402 11.068432835687078 11.940262187917456 -1 4 1
1302 1 12.75871343810273 20.194063348267324 10.375506147162463 -1 1 0
1712 1 19.72320638863133 9.016866714548824 9.373997134118138 -4 2 1
901 1 17.74527596304169 9.182472607826917 8.341020362389035 -1 -1 0
471 1 17.43079838746959 8.48041661478812 10.58253833215405 -1 0 0
1101 1 20.32469482831401 10.745122905339374 11.903401641132243 1 1 1
480 1 19.349437989957014 12.558315090393915 7.858157372825087 0 0 0
487 1 18.478821648867708 11.009633567747082 10.093079153671113 -1 0 0
556 1 17.35337970782646 12.75877115326733 8.450849010062045 0 0 0
111 1 3.901486589913599 12.643528087860494 8.219478124512907 0 0 0
236 1 20.741828045815243 11.853349520905086 9.46951871198457 0 -1 0
28 1 20.935689827650638 17.93600605841743 9.207133694936056 -1 0 0