LAMMPS data file via write_data, version 29 Oct 2020, timestep = 200000

2048 atoms
1 atom types

-0.07567902423962458 28.427679024242718 xlo xhi
-0.07567902423962458 28.427679024242718 ylo yhi
-0.07567902423962458 28.427679024242718 zlo zhi

Masses

1 58.933

Atoms # atomic

556 1 0.41874148672902606 1.340224076600777 0.7405483312206697 1 4 3
1898 1 2.6967193141179635 1.1736179063055363 1.8406046097489128 0 0 -1
263 1 2.163869224964607 3.347495399135309 2.9255683228308986 0 0 0
753 1 0.5282242875797937 1.4834812429915025 3.1527268829741084 2 -1 1
121 1 2.7505975790439727 1.4186758762204992 4.365299269063446 1 1 -1
564 1 1.938407631865036 3.239834445525571 0.38796305801403275 2 3 -1
791 1 4.206629324866828 3.1349195590905667 1.7531711085518031 -1 -2 -1
560 1 4.234889583916551 3.2411742192093174 4.2684921486368745 3 0 0
894 1 4.853067808245955 0.9609801402468567 3.117381916958147 -2 0 0
1792 1 6.366989367849904 2.8962560136052904 3.0646034968918734 -1 2 -1
1300 1 7.064546748481529 0.941640754524115 2.0099885468767713 1 -2 3
1320 1 7.412754962341784 0.9682400838333474 4.410336571155914 -2 1 1
694 1 6.5574359739255135 2.948567719913109 0.7543020343844695 2 0 0
307 1 4.9563314169061 1.1278351305486725 0.674777529232819 -1 2 -1
1360 1 8.705867374360743 2.924618716821863 2.244028403609 1 2 2
578 1 11.025246238474155 2.736753021926761 3.831620430883849 2 1 2
1983 1 9.604025829615855 0.8329887994399755 3.361575801945386 0 2 0
918 1 10.959028182525268 2.5620979858060444 1.352649087734261 1 1 -2
538 1 9.51584510895658 0.48457768001441803 1.0907530239166343 0 2 -1
723 1 11.921935318219745 0.4673612238283489 2.4097176067711246 0 2 -1
511 1 11.689594377388868 0.4395213570382831 -0.06260783194024566 1 -2 3
2039 1 13.195805505449966 2.4923710443278106 2.8349905002267564 0 -1 -2
2042 1 15.522137071222502 2.4865285315247343 1.8289121980356848 0 3 2
1518 1 14.402144577086327 0.42215826028772274 3.9062811590644966 0 -2 -3
1218 1 14.232518482041554 0.2974971654041222 1.4092775463270735 0 2 0
1071 1 15.623022582909519 2.477068196636043 4.3400397488338 -5 2 1
1304 1 13.210251880481199 2.242253759536597 0.4627550594501104 -1 1 -1
315 1 17.967042877602935 2.2563388227549273 3.5544097848006677 0 -3 2
1501 1 17.78949952764261 2.177874001658431 1.032567438384596 2 1 -1
1129 1 16.54365917283794 0.42952456564706043 2.801340691613325 0 -1 -4
1915 1 19.017264005826448 0.27983220460420943 4.201492642123582 0 1 2
1020 1 16.671878025911916 0.20737819082732656 0.3561259515092076 1 2 -1
902 1 18.869822769682685 0.11051906505038891 1.7322331566439921 0 2 -1
58 1 20.036021153070358 1.914140626254691 0.20536770456840803 -1 0 2
2036 1 20.13032624462226 2.077721172927235 2.5769250326757476 0 0 2
73 1 16.87196336347069 4.159920575191405 -0.03384656126732641 1 -1 0
822 1 22.44490721331585 1.8777876766692594 1.566592686570838 2 0 -1
1316 1 23.94868611265268 3.8266811081676555 1.9188895641545038 0 3 -1
631 1 22.307557975329026 2.02160104308395 4.034127440986643 -1 2 3
1272 1 21.53090590283921 3.8739045042379923 0.5746858558330337 -1 -1 1
1338 1 23.881958105225863 3.8650444510856183 4.371733509151902 3 -3 1
1637 1 21.28258360982155 -0.016859820837853513 3.221136233359733 -2 2 3
1505 1 21.506902525925177 3.999504483436417 2.9140705536963067 0 -4 2
509 1 0.02592358899797631 3.647526686796974 4.28470736247729 0 2 1
514 1 -0.07459110194082541 3.4711242382982017 1.7682929035370814 1 -2 1
1250 1 24.573142751697382 1.5291073616416433 0.7001371074278001 -2 1 -1
241 1 26.775535936556302 1.554908891616768 1.919037613912767 0 -1 0
1735 1 26.173793792267254 3.5905157398079184 0.5596885997878486 0 -1 6
1025 1 26.196177097142105 3.713412559704564 3.2399295194514792 4 5 0
1707 1 24.6691897003441 1.7625618381924018 3.1876744291779846 0 2 2
1553 1 26.970180411524304 1.6616102041885674 4.38252235176774 -1 0 -1
1747 1 2.301272934157184 7.472316644551654 2.464995384010545 0 2 1
1144 1 2.996871402858686 5.159152169815563 1.3869159205872075 1 4 4
1063 1 0.8289746684611223 5.522758030625606 0.32212189071103503 -1 0 4
194 1 0.8131165431004411 5.453900788501612 2.7204690040364454 -1 1 -1
1593 1 0.2144098855185495 7.660962957282626 3.9124504657979444 3 2 2
382 1 3.130219762136937 5.479791725895065 3.844597287596927 -1 -2 2
302 1 0.06302044167021478 7.507915816665474 1.2931774616148526 -3 1 1
567 1 25.040675529766922 26.864435125176932 12.633881066560896 -3 2 3
906 1 4.751083718745551 7.405048103454345 3.5741087128513667 -2 0 -1
132 1 4.535193884574313 7.071128678921519 1.2218231746901569 3 1 1
892 1 5.391450610867143 5.197474775620571 2.418140890335177 1 3 -2
57 1 6.873860149398047 7.274979034864958 2.6690509186415237 1 -1 -1
795 1 7.558475339626588 5.096246339830709 1.5048244568572766 3 -1 0
889 1 6.683164143250918 6.992223712954119 0.31862437972515756 0 -2 0
727 1 5.197483341723816 4.976155648869949 -0.0396812760924557 1 1 -1
1169 1 7.531657593181951 5.093578584650875 3.8142282696868977 -2 0 -1
504 1 10.090263664014872 4.871626892888142 3.043918237112704 0 -1 0
945 1 9.164997474161831 6.9614693735002895 1.9175446398812275 -4 2 2
1369 1 11.376064104041363 6.848965276008254 3.4405041503681337 0 0 -1
1548 1 11.337150672313987 6.64086321932451 1.0136006253337342 0 1 0
337 1 9.842659685927446 4.642503454198358 0.6334658780869191 1 0 -1
1016 1 9.279222100649445 6.803243550443086 4.350659711313222 4 0 -1
1060 1 12.292298418988372 4.593316896622599 1.9614556449097291 -2 -2 3
1987 1 12.403466120253967 4.585693093717657 4.399561852611595 5 1 1
1509 1 14.577620083294082 4.370853933433544 3.2135957945830596 1 0 1
107 1 13.68539606925908 6.497277573786408 2.339420925369671 3 -5 -3
629 1 15.84782555049243 6.401713473229146 1.413354000521426 0 -1 1
360 1 15.842931382919593 6.5011131450821065 3.700695402636716 -3 -2 3
1547 1 14.592992095830395 4.329846702331346 0.7381245656519728 2 0 1
37 1 19.127684599915646 4.062691907820039 1.4019492523660089 0 -1 0
2037 1 16.88237243643575 4.358094083639308 2.4752147089342076 1 0 1
1290 1 19.07102260027539 4.340996437748083 3.9040491838445703 2 -2 0
1684 1 18.10299188830816 6.309035756102788 2.96303795873649 -2 0 -2
1560 1 18.16811537503859 6.086821864454905 0.6085389059562297 2 0 0
1310 1 27.396202732542086 26.81721682220074 13.872449205099196 1 -2 0
162 1 20.402961195598017 6.082507496744224 2.2574197412148544 2 0 -3
1619 1 22.667145563833408 5.917095104046414 1.5334889952229411 -3 -1 2
1730 1 22.692371029415924 5.932887174547859 3.8348341375437096 1 -1 1
1818 1 24.22275203242136 7.769923048974869 1.782062575596802 3 -2 2
484 1 21.844895868371886 7.8828586470253255 0.3428841352997242 1 4 3
1550 1 24.17018183175876 7.780520058352085 4.255595014479518 -4 -3 2
788 1 21.89757264834283 7.946477221316766 2.783643217873492 0 2 4
230 1 24.786680636182176 5.617700962949018 0.46857696503399593 -4 3 -1
1235 1 27.05145636853141 5.51007346828173 1.6613091784582805 0 3 1
1415 1 26.42268934629766 7.722296085874869 2.7616108222236297 1 3 -1
985 1 25.012283437252485 5.815929888336819 2.960188868260879 2 -1 2
223 1 27.171487079178732 5.6781632775898725 4.075126188047842 1 -1 -1
362 1 26.315939137469016 7.480847284566652 0.34568470009904767 1 -4 2
1817 1 2.5621537573970032 11.508592541053456 2.0106529258044525 4 0 -1
1150 1 0.25835704413044125 11.466201785477818 1.1596963870447963 3 1 0
2015 1 3.276558041400261 9.31859150052047 1.076278181758992 4 1 2
122 1 1.1054399404380788 9.50935579059961 2.47563073310483 -2 2 0
1657 1 0.4452210841701817 11.640825809581035 3.6697218870060593 3 3 0
1683 1 3.4246825699547516 9.418878806213453 3.582451953607478 -2 1 3
1362 1 2.783915656895363 11.416399571651063 4.634024248138955 1 -3 1
418 1 0.9620477716633833 9.350791821405009 0.06962149032486145 -1 1 3
150 1 7.207852055513752 11.033949417431947 2.5379253320631894 2 -1 -1
1538 1 5.5921770665779045 9.339536631177925 1.982262334779247 0 2 -1
1768 1 4.938908496624526 11.38739813476459 3.3407576507299064 2 -1 3
1963 1 4.684325044603213 11.28330478927357 0.6508690250367929 2 0 0
1576 1 7.0052809292558145 10.886739662663489 0.16944172894091064 -2 -1 4
1056 1 5.739669096401316 9.325694389381596 4.671149501226961 3 -1 1
1308 1 7.929928188937934 8.91301201191907 1.1122974526562475 1 1 -1
1736 1 8.118759741125043 9.082467981370142 3.673458963867275 -2 -1 2
41 1 10.338550712273063 8.830348378385636 2.4936670468775066 -2 -1 0
1022 1 9.5004840575159 11.00154642103675 3.9395038388326205 0 2 0
275 1 9.369490322089046 10.797495574187495 1.500635431694365 2 1 0
1047 1 11.801079709297719 10.811819310698956 2.7796191672360826 -2 -1 -1
402 1 11.607065034284124 10.597783337784143 0.46831179427490865 -2 1 -2
1698 1 10.225348229989585 8.671404911241083 0.20400479674614214 0 -1 0
1515 1 12.6585167630997 8.76924613147213 3.937640596053056 0 0 2
803 1 15.022762461915258 8.614854957362878 2.9135851027150195 2 -2 2
1567 1 14.127624520632976 10.553552254538253 1.8754491563938087 1 -2 3
328 1 14.118032241711836 10.71940554788865 4.365638259379814 -2 -1 -2
453 1 12.659170563809884 8.710447192692493 1.4481461473485309 -1 3 2
809 1 14.757481602360782 8.442518221596576 0.5054826350788568 0 -1 -1
577 1 16.287271490075454 10.35487602761752 0.99558475893104 -1 1 -1
1856 1 16.447620511668397 10.464983884712428 3.409368905142846 1 -4 -1
252 1 19.565886721426033 8.073426867480624 1.3301056125811754 2 -1 0
670 1 19.490701310113685 8.169199996583567 3.7050625193507534 0 1 -2
1139 1 17.143410644417585 8.243124198578426 1.98611504870805 -2 1 -4
976 1 18.526224632073436 10.103186426387184 2.3177164283673592 -4 -1 1
1215 1 25.802709400582387 24.55983490995378 10.982202688901495 1 -2 -2
144 1 17.187223953708177 8.402556467114659 4.474505334506501 -1 -1 1
669 1 20.0514777024119 12.116610627185594 1.7518507174437585 0 0 1
1585 1 22.783533939411058 9.899887887276284 1.567840442132679 -1 0 4
1985 1 20.70577003275565 10.16207102940789 3.173732847870522 -1 2 -2
427 1 23.02615537459647 9.93316883636889 4.1312581544039 -2 -4 3
455 1 22.220665013162325 11.951459011871886 0.21228131756216678 -1 1 0
436 1 20.670326840650475 10.081132287488789 0.4259803551019672 1 6 -1
447 1 24.31302817365802 11.698173448022422 1.3845170883011353 -1 3 3
1999 1 24.715970133766724 11.917524004027552 4.063041676014059 1 1 0
439 1 24.872973180731982 9.634055316051706 0.18402844289503878 -2 0 2
1928 1 27.206463891433202 9.55081631457724 1.3656512139664265 2 2 -1
1796 1 26.598552408657397 11.728580489502932 2.5485770873868754 -3 -1 2
1015 1 25.155199307832284 9.821696530353282 2.7244453692598922 1 1 -2
759 1 27.49255269755836 9.697667936511106 3.8988208972384646 -1 0 3
1334 1 0.7925401164663641 15.560226842706346 1.413358233227434 2 -2 0
85 1 3.2196760574280665 15.646057075417197 3.006909883787933 4 0 -3
344 1 0.7746730606426145 15.6913641272273 3.7376283474937795 0 -1 -2
189 1 1.7124952664189947 13.360146766925464 0.6147042519105019 1 -1 -2
1284 1 1.961459811697985 13.571654022231103 3.2771263715020913 -3 3 -1
1146 1 3.1754050889273517 15.308815360373057 0.5756253727744373 1 3 -2
866 1 4.1525690958836385 13.325369223938965 1.7446781453589124 -1 1 1
446 1 4.173082245605632 13.57814660074497 4.326151154169262 4 0 0
740 1 6.435637630331627 12.91707521732033 1.2903710527143766 1 1 -6
1490 1 5.535255841702075 15.307364244045223 2.468410854139055 -1 0 0
1258 1 6.490367795154061 13.291379848586672 3.588213150696511 -2 -1 -3
1254 1 7.603835845985952 15.020025008605705 1.4850925717581986 1 2 0
1722 1 7.858269508878012 15.309811138713604 3.9435389936323713 -1 3 -3
253 1 5.3908777605414 14.847673341318373 0.06119524746239993 1 0 1
1811 1 10.880645177577614 12.836315102347601 1.522325944709695 0 1 0
1993 1 8.774584132282996 12.817633520644398 2.535505371414885 -3 0 2
314 1 10.097833816199513 14.912054495612809 2.848650046190585 -1 2 -1
846 1 11.133210793984585 12.901311196732388 4.015262412705464 0 -1 0
932 1 9.755911693026269 14.864614325542647 0.49085229896422977 -1 -2 3
1050 1 8.476308410342979 12.794599524634789 0.24429302990314744 0 -2 -1
772 1 15.545478768213323 12.492981122670423 2.1757521284875128 0 0 -1
901 1 12.472563874545244 14.831508775682128 1.9668024856869373 1 -4 0
789 1 14.713345698043149 14.51086431245088 0.9208023139406255 2 1 2
393 1 13.326608418129238 12.802513757518785 3.0691710228611018 -3 0 1
483 1 14.850177905200402 14.752373622128173 3.322754202901129 0 0 0
664 1 13.156038253214053 12.47568900330496 0.726285094615787 -1 2 -2
460 1 12.511003568232768 14.950001858603535 4.32936729718428 0 0 0
1199 1 15.634128583934505 12.71432058380442 4.622964497496788 -3 0 2
974 1 20.219142005623688 12.351807832089493 4.23167763320057 -2 0 -1
1345 1 17.74902223903254 12.261838505216891 0.8647089752246444 -1 3 1
1616 1 17.12468442567056 14.401433239141257 2.062517021737476 -2 1 3
1043 1 19.474156482550576 14.336206594186216 3.0040665418771813 2 -1 2
1632 1 17.94223901113935 12.40414966332143 3.2878780524414304 3 -4 -3
1724 1 18.060142413769952 16.285285643890333 0.5681339303141153 -1 2 -2
1325 1 17.23993469971539 14.722806947574758 4.425028847109043 -3 1 1
259 1 19.278715917690135 14.10711158250317 0.38236316063167775 -3 -1 1
652 1 22.3645685171535 11.984663209052782 2.8092811638003665 -1 1 0
459 1 21.60836785285705 14.037798218336988 1.410023646235225 -1 -2 1
647 1 23.781381671973982 13.900227241582998 2.6330378899297786 -3 2 1
199 1 22.570696821988868 15.908301149571223 0.3737446968929392 -2 3 -3
320 1 21.773266906448498 14.259706965735763 4.096984207670717 2 0 1
1880 1 22.507016874227126 16.053390308194984 2.701490788518456 2 2 -1
1558 1 20.347682560922024 16.195365548899325 1.6455993935879587 0 -2 3
75 1 28.00095904953548 13.558102417338333 2.134126377180929 0 1 1
238 1 24.842893511262893 15.692821755965804 1.492179743154825 0 1 -1
588 1 25.81349623947552 13.571016574233788 1.109114747988839 0 0 -3
445 1 27.03214729940281 15.746667660510765 2.5510343433833906 0 0 -3
1842 1 27.117849390021675 15.495498324893319 0.275851362526961 -1 -1 1
304 1 26.024694489264455 13.879125424857099 3.7796121090109462 -2 -1 -3
297 1 24.700863211852095 16.02008999784732 3.824245183021135 1 2 0
433 1 28.26747032463036 13.859241141350205 4.723345632150155 2 2 -3
129 1 1.9266098238911176 17.62442166933858 2.467165247437798 -2 2 2
2029 1 1.130413958193703 19.68339402519333 3.742783107432573 -1 -1 0
2043 1 1.0544342510124642 19.42469795744001 1.2520462744111953 0 1 2
721 1 3.381670148941955 19.389462629229314 3.052098442511387 1 0 1
746 1 3.34206318945415 19.39804149977796 0.46917038462917415 1 1 -3
1953 1 -0.01042405805823382 17.80361734313115 4.655225350166546 -2 0 1
819 1 2.320952007322097 17.722813628290652 4.805635003969183 3 1 -1
1264 1 4.590202551037534 17.50173403303146 3.8544140802195086 -1 0 4
1031 1 5.779249639468591 19.26268300422001 2.1067858651138875 1 1 -3
1635 1 6.868603148503476 17.228329332306345 2.9134043256696014 -2 -1 2
1937 1 4.485571026458963 17.34913853310462 1.4551820857034854 -2 1 4
12 1 5.825624123757422 19.391921385154895 4.357223146300629 1 0 -1
1442 1 6.720605854126065 17.016989121464327 0.3978238681182387 1 0 4
2026 1 7.919325423129176 19.03849425610305 0.9866123385496679 2 0 -1
403 1 10.280029100925375 18.803098154424795 0.11140984209714042 1 0 1
1776 1 8.101324201366216 19.309477606612873 3.418498185172583 -1 -1 -1
1974 1 10.346909846680397 19.041165515629913 2.3930532480146223 -1 1 5
266 1 9.052274200088759 17.030995223696003 1.8705778078838067 -1 3 -2
1131 1 11.401706458846771 16.892864395544215 3.456569529140613 1 -2 2
1185 1 11.21506529988496 16.770581982118337 1.0391875963350665 -4 3 1
899 1 9.24064057509344 17.383425134040543 4.474303196909088 -2 -1 -2
826 1 13.669654130075838 16.838475599722585 2.6051027037961667 0 -2 -2
526 1 12.536626873694372 18.6866259249471 1.4063632125767629 -1 -2 1
1933 1 12.823276702518466 18.8119672135481 3.6999942770863234 -4 4 2
16 1 15.286059920337994 18.74845241145359 2.8334956368827626 1 0 2
698 1 14.933809193234813 18.49452670663827 0.45158103772237046 1 -1 -1
555 1 15.85732525735451 16.537200223923627 1.6784541045840797 3 -2 -1
858 1 15.887874570890316 16.72423749763889 4.06075472944647 -2 1 -2
1687 1 13.503326252157612 16.531876863448375 0.09954496094363263 -2 3 0
384 1 18.230165499028153 16.413506355403044 2.925534362622593 -3 -1 -1
229 1 19.808228269525905 18.355143302182384 2.6095000117421963 -1 -3 -1
413 1 17.57398659119965 18.63898715098643 3.9558058497554054 3 -2 0
1317 1 17.506245971280137 18.477535022029784 1.6057225630377747 -3 3 4
1627 1 18.161473441689758 20.302887093661994 -0.05185877590144028 1 -1 1
688 1 27.180378349491342 26.47450898461389 11.60234515724559 0 0 -1
1852 1 20.46044136424323 16.26026279206824 4.089929519842166 0 -1 2
1557 1 21.69751187930317 17.991263792709404 1.1468868731227382 -1 -3 0
227 1 21.952830534883866 18.18747648326014 3.7799488174478046 -2 1 1
325 1 23.998388146041123 17.863631656620136 2.302881082582391 -2 -2 1
616 1 22.827393114392315 20.02256253874271 2.36969462488535 0 2 -1
321 1 20.459936529434458 20.17633291974144 1.1205760778897216 -2 -2 -3
1877 1 28.091595066475428 17.574374639264832 1.6502895642095383 -1 0 -3
1351 1 25.081126224061983 19.83604550638472 1.3283107104326346 0 2 1
1788 1 27.411934963485997 19.726592734442818 2.4731331780989376 -2 3 4
1186 1 26.26507895695257 17.83044161370404 3.378125209297556 1 -2 -1
1535 1 26.01960302312645 17.71030590551304 0.5812217763884623 -2 1 0
1032 1 25.123958282126168 20.004573296819196 3.7501194278186425 0 -4 -6
391 1 27.375681470623043 19.69212850915109 0.06491391862807097 0 1 0
690 1 1.3122761035159707 23.606769516274497 1.228119244269359 2 -1 -2
1863 1 2.2150516701625325 21.400058220654756 2.0976423037516847 -2 3 0
33 1 1.503043482936227 23.686362691554812 3.873472166630113 2 1 4
829 1 3.4134560597432624 23.3382774627172 0.2110644678397054 2 1 -1
1896 1 0.1219155470253864 21.903865410569658 3.2790686831659714 -3 3 -2
456 1 -0.05400072131689159 21.64666099517433 0.7996898479638042 2 1 1
1566 1 3.5420987153474135 23.41487439710827 2.6204400154531156 4 -1 2
878 1 2.5635203151564627 21.652075673536217 4.49200974610644 2 2 2
1214 1 5.767913542551456 23.29225991988266 1.6927899687772994 0 0 -1
848 1 4.726837062724382 21.547136441203172 3.5175027052521934 1 -1 -2
11 1 6.936886277125059 21.386679432965032 2.5584774478375416 -2 3 3
95 1 4.514955793245888 21.279529922708093 1.1301084520110833 1 0 -1
134 1 5.979880675476718 23.49752566038225 4.108949102740453 0 -1 -3
1447 1 6.671695640354435 20.97228674196625 0.2291330940345197 -1 -2 -1
827 1 8.062788951021 22.958204535035172 0.7554731725696757 2 -1 3
1772 1 8.21292392632863 23.27400940036447 3.181636600269187 -1 4 0
23 1 11.693823286969478 20.98370767677428 3.285024748688697 0 -2 2
506 1 9.055523781277268 21.024414010183285 1.6751857370586283 2 1 -1
356 1 9.340936577480424 21.29977041268252 4.143580251918743 -2 -1 -1
1202 1 10.470466819006367 22.89350806720538 2.277862610880246 1 -2 -1
152 1 11.467929598470771 20.847399468716105 0.7439271417320278 -4 -1 -4
2023 1 13.88521351332959 20.709681976406834 2.13605542542815 0 2 5
1206 1 12.708551321173653 22.859597766005884 1.4966577723867276 0 -1 0
218 1 12.979315735823349 23.040559139881125 3.7819580552169927 7 4 -2
1555 1 15.028119236856545 22.807720614367035 2.7980458233833696 2 2 2
201 1 14.843959981111025 22.53207809335658 0.30635112710985407 0 1 -1
589 1 13.967133010361229 20.761709731277513 4.574179462090169 0 3 1
1278 1 16.060078128808243 20.52657570012991 1.1591772376987766 -1 -1 0
995 1 16.22846491181508 20.762569363004275 3.5666039313368936 -2 -1 -1
930 1 18.45048182608499 20.571234523953883 2.422170555384812 -2 2 0
1318 1 17.36500443958777 22.81438495311233 4.193285299213817 4 0 1
919 1 17.209613502311136 22.595092421965063 1.7834415107502923 1 -1 2
1581 1 19.534889035993395 22.581575244508294 3.038701473650152 0 -3 2
1108 1 19.38973024345868 22.227158060803518 0.6879569332191398 0 -1 0
93 1 20.647097074311596 20.41009232717456 3.605077723437409 0 2 1
1532 1 21.79372375068874 22.22796781174047 2.127436347435661 3 0 2
1468 1 23.915372115233403 21.999047280964987 0.9615786531186281 0 0 -7
1473 1 24.059867948424902 22.184045101813474 3.2392373574052638 1 1 1
458 1 23.220987453955026 24.339863178385066 2.1819461725469673 1 -1 -2
1714 1 21.77736091300015 22.44279309959923 4.460811865170262 -1 1 6
862 1 20.88095737893071 24.202956829330148 0.9686868691400612 1 -3 2
831 1 23.26747127330666 24.347528252132484 4.652199232251626 -3 1 -1
936 1 21.04304788140196 24.600805970245723 3.321979808622986 0 0 2
96 1 25.324257625164748 24.005542692935734 1.1184076396728864 -1 1 3
481 1 27.632915069521033 23.835659085867412 2.4227591882188557 0 -1 -1
1104 1 26.23265303579482 21.898771694099786 2.154620019938962 -1 -1 4
1805 1 25.527070182855958 24.04224453754238 3.5361794191719933 -2 -1 2
1670 1 26.363307570560224 22.011147134663346 4.543782562460019 -1 -1 -3
625 1 27.83741497235895 23.85566622529017 4.836893471256476 -2 -2 -1
534 1 28.19398284655891 24.456893360962887 12.26750997302314 -1 0 0
287 1 0.15108438752304412 25.73758624636467 0.8813349040426486 1 0 3
1906 1 2.491805278314107 25.550948053617752 2.0493969025757135 0 1 2
611 1 1.7155763459622693 27.599746983485318 0.9529513326104242 0 1 3
619 1 0.3195572623860141 25.791450929922412 3.331142283896587 -2 -2 -1
147 1 2.6247249330957207 25.65531516424219 4.518834694175821 1 1 0
870 1 1.836471336825399 27.811262664801063 3.400476065845598 -2 -1 0
171 1 3.9959608383154643 27.53137835826511 2.226050647582745 2 2 0
374 1 6.127767690353426 27.3687863642495 1.1156668578768594 3 0 1
979 1 7.0063783988146575 25.37174419322627 2.2960648767968004 1 -1 3
1396 1 6.096220976366485 27.444471535347787 3.637288643714106 -1 -2 2
937 1 4.727086037197043 25.49689058685911 3.2453466168087863 -1 -1 -1
1717 1 4.660466450293364 25.382616616089727 0.904744645904654 2 -1 0
1322 1 3.9123096240513084 27.640227201303304 4.684263160569267 -2 0 0
485 1 7.016683138413745 25.049420557307947 -0.07090838486990154 1 1 -2
1654 1 7.181240380702471 25.50745560931938 4.6045010806753455 2 2 0
1184 1 8.29842125791068 27.28783988668615 2.748906656143544 0 -2 3
1902 1 9.331348027298343 24.876247061200736 1.2403510565037896 5 1 0
65 1 9.435975148281138 25.224406773864956 3.628109467202356 -1 -2 -2
1754 1 10.604858699903614 26.95715989945282 1.7557200260270966 -1 0 1
1197 1 10.868714470477057 27.163936747463033 4.249750158764996 -2 -2 -2
2025 1 11.751982125373939 24.960030691810694 2.666828894246509 0 0 2
435 1 11.591839128164388 24.753895840341514 0.2727374982712472 1 -4 -1
1962 1 8.359801984199434 27.099925195495032 0.2528213181510854 -1 2 1
1255 1 14.033579499535048 24.930284906531014 1.7006662107106176 -2 -1 1
1544 1 13.059590979957827 26.92977481269166 3.390942779198111 -4 -3 4
159 1 15.333796547591257 26.796129675790603 2.3349873829460557 1 -2 -1
1995 1 14.212714686413678 25.04285473336995 4.166478186097021 2 -1 -1
1346 1 12.900107426586104 26.889392143529186 0.8031813815702917 -2 -1 0
90 1 15.152086345961028 26.63695167633437 -0.03299408161158766 -1 0 0
1969 1 16.510105315195425 24.75644428175446 3.0824498801664615 -3 0 2
1228 1 16.27039398903046 24.624433948540144 0.671007639398867 2 2 2
438 1 18.694740103452027 24.630812324206033 1.9917746144883175 -1 -2 -3
700 1 17.453077493333396 26.674443315056955 1.3556743247629752 -2 -1 5
24 1 17.553227375407417 26.91385952587938 3.7417773928175513 -3 1 0
463 1 18.848119584261084 24.76358071596021 4.358295412066708 1 4 0
1891 1 19.634676775089638 26.451421763418388 0.36827037372338706 -3 0 3
1621 1 19.825344410435555 26.69212599938404 2.79014507705464 1 2 0
1524 1 21.22795062308178 28.319920419994872 0.6902712835673508 -1 0 -4
722 1 23.664204957971144 -0.024017078026226102 4.616355800254142 -1 2 -2
1008 1 23.5741606758276 28.22942863436863 2.1719702266484067 -2 -1 2
675 1 22.097195797061538 26.402925285370117 1.8716299657491353 -2 1 2
400 1 22.193563957033184 26.56114217111147 4.176296220211925 -1 0 2
123 1 24.232197368395504 26.050916582457738 0.7730943334916739 2 -1 0
1841 1 24.293475671484437 26.13977591184605 3.1529913575276534 0 -1 -1
105 1 28.09127781355908 27.879874865808922 2.1721091773386156 0 -2 4
1850 1 25.812479675443456 27.953425668867737 0.983013051525268 0 0 1
1114 1 26.53096416064772 25.97776289676989 2.085753655354724 1 -1 0
1328 1 26.668189116679066 26.127295088863555 4.54512925517885 1 -2 -1
1917 1 25.91529957469527 28.099059022980065 3.425721290844105 -2 -1 -2
1910 1 28.230614312588926 28.047117551730558 4.671194141983704 4 0 3
1645 1 2.1578404506388105 3.7126830317652106 5.3918231027900525 1 -3 2
431 1 0.6314405879317533 1.5797313383814053 5.731551738059023 -2 2 0
1676 1 2.931745004215335 1.5903249312260674 6.7994476534650214 2 -1 -1
414 1 2.2673804193879668 3.7130076011183046 7.952692422093703 -1 0 0
1459 1 0.6906505072524775 1.7447862527218287 8.208872818621742 0 3 0
533 1 0.09792291965221978 3.6945468212641583 6.830917468051065 -1 -1 -1
1200 1 0.20675203903790423 3.8270568890711214 9.34789241991148 4 0 2
1277 1 3.060471995141647 1.6466075419150177 9.230653832650637 1 2 1
371 1 5.186186249767959 1.1651123265426713 5.4530194951108 2 -2 1
765 1 4.563805952496742 3.390750486561889 6.625648431592352 -1 2 1
1395 1 4.620455002324074 3.4570100228835967 9.130431468788375 1 2 0
1162 1 6.492971744924445 3.2482887123054045 5.519306226519861 0 -2 1
840 1 5.260127909199727 1.2938677848583937 7.862440622804877 0 3 2
143 1 6.788098274861156 3.2348062987181856 8.085518328603264 0 2 0
706 1 7.469984560708884 1.208784068812449 6.828613377301863 0 0 -2
632 1 7.764991152560148 1.281754503421524 9.199406176230612 -1 0 -2
1609 1 8.697607193663956 2.998709537523379 4.578468237019848 -2 -3 -1
1580 1 9.732184287570346 0.9559195297037306 5.872602128856111 -2 3 3
1329 1 9.928783043762776 1.091192150235215 8.213975212558728 -1 -1 1
1821 1 11.354787190404284 3.13207229760869 8.697999268267369 -1 -1 2
1302 1 11.278192939681652 2.8682052881092175 6.26724554450193 1 -1 -1
116 1 8.924938258507954 3.1404652101126365 7.112519305360062 0 1 2
209 1 12.084956655542726 0.6888971211775786 4.826554509887762 0 5 -2
378 1 12.432332182709944 0.7241514383821307 7.146082077674543 0 2 0
1474 1 13.4017297710136 2.60622850664896 5.417799999026948 0 0 -2
1456 1 13.476437807070122 2.7916939290483294 7.763510761929867 -1 1 -1
1940 1 14.687763666867067 0.8095122217554196 8.586306259280857 0 -1 3
1069 1 14.635843072554733 0.6955514551696731 6.219313309726578 2 3 0
1288 1 15.688319312048627 2.7508261902219355 6.842559913868622 0 2 -2
1480 1 15.904967896159638 2.8667682792511653 9.134541807186432 -2 -1 -4
1330 1 16.784287022118868 0.48920514732844267 5.1313364666953385 -2 -6 -2
1237 1 17.847100355106974 2.44227333114861 5.856293983549522 -2 0 -6
341 1 18.092869547736143 2.675712328070215 8.155653758301812 0 -1 1
1478 1 16.895065807975847 0.6870065737079787 7.645824156896309 1 0 2
1942 1 19.02873507200728 0.44080614112159755 6.599259320902526 -2 0 3
1488 1 19.13796824645633 0.630942956971875 9.104770091081134 1 2 0
1407 1 20.092485651587012 2.3004600898535195 5.103313276331334 4 3 2
1916 1 20.38366039467165 2.4040760427959817 7.508805268899991 3 3 -4
443 1 22.544659890030168 2.1936226524046987 6.471212698795499 0 2 -1
1188 1 21.508672970508215 0.45647401749442473 8.027115927469033 1 0 3
1569 1 23.804095351032373 0.1607241931243664 7.139653012628885 0 1 3
1244 1 22.595159371501403 2.39483108223906 8.993083445129384 0 2 1
966 1 21.259566800296213 0.24027729783295937 5.578749689889456 -1 0 -1
836 1 24.08300759911711 4.106939186136157 6.939843142049849 -2 -2 1
72 1 24.821319925799976 2.000206263749259 5.594110505172888 -1 0 -2
1109 1 27.07056200819502 1.7784803249012828 6.854901167182759 -2 3 2
1951 1 26.38543988911455 3.7726243922452998 5.655140588803283 1 -1 2
798 1 24.966119729988357 2.1547396557078073 8.11134741738227 1 -4 -2
610 1 27.14615471901989 1.8613331564801872 9.355091695924093 2 -1 -3
118 1 26.48292574606593 3.874745025595613 8.169001447379888 -2 1 -1
1622 1 2.608906240833211 7.601507525372832 5.063513917696054 -2 0 2
1570 1 0.9729872372671 5.833189896800754 5.341624678979887 3 1 1
624 1 3.1943823579324615 5.519229866208228 6.404837858624014 -1 -1 2
1988 1 2.7273121997085594 7.737742518234774 7.549944374606114 -2 0 1
390 1 1.0675569798006537 5.9313603780165565 7.748271637041107 3 1 0
1753 1 0.4014663719459091 7.886596893101556 6.52351242214168 3 -1 -4
1216 1 0.5388181036030499 7.873289278348429 8.956584804546068 -1 0 0
1247 1 3.2683554308706135 5.63342627131603 8.883683864207656 1 1 3
1919 1 5.365100128199626 5.308951904779514 5.03991710214675 -1 2 1
524 1 7.010172183259381 7.151284286489762 5.175448621769628 2 -3 0
1920 1 4.718985195099821 7.466235074736175 6.06031586775027 0 -1 2
1212 1 5.559982009341157 5.517666354969128 7.606336999511784 0 1 2
1454 1 7.040558511248262 7.389090597589756 7.630923336763622 1 -1 1
1965 1 4.8979596414281925 7.5568306917028885 8.655516517193114 0 0 1
1528 1 7.887964010321059 5.385241821887636 8.81231270262274 -1 5 1
988 1 7.678150430111564 5.176497087711419 6.380436491553094 1 -1 -2
1399 1 10.03793106219503 4.857725482396131 5.4171121435581755 -2 -1 -1
668 1 11.4866891542378 6.831396337218624 5.819227730913188 1 0 0
272 1 9.218749187521645 6.93427910078947 6.8191377482492 1 0 4
332 1 10.170206358470656 5.031240711496205 7.9034775984513645 -1 1 -2
1849 1 11.517546884363865 7.142026185212848 8.19283184986875 0 -1 3
925 1 9.368299269415184 7.195649884054551 9.244855015756546 -1 1 -3
63 1 13.57258309695619 6.64164187648368 4.756525644045685 2 0 -1
1481 1 12.332435174325909 4.810464496815745 6.810604421671281 -2 5 1
1458 1 14.449623157860005 4.663273591290104 5.633911892265911 1 -1 -1
527 1 14.724759801250329 4.776868165725435 8.080224782655026 -2 -3 3
25 1 13.725729129644575 6.818721400873865 7.191457278627593 3 1 -1
683 1 16.306575760554438 6.761718745784749 8.630939810242266 -1 -2 -1
726 1 12.640132094709177 5.149083140379729 9.1925677136319 3 0 2
1737 1 15.795744423653431 6.5381112908095025 6.157260980153138 0 1 -2
586 1 16.807762774629772 4.4006938971108065 4.875440396108325 1 0 -1
1641 1 19.303889204150764 4.297781115493445 6.528636846536276 0 0 2