LAMMPS data file via write_data, version 29 Oct 2020, timestep = 100000

1372 atoms
1 atom types

-1.8578969527324745 26.66589695273306 xlo xhi
-1.8578969527324745 26.66589695273306 ylo yhi
-1.8578969527324745 26.66589695273306 zlo zhi

Masses

1 58.933

Atoms # atomic

237 1 24.310030924413002 3.304495659350631 2.2067115013254632 -1 1 0
426 1 25.138106213835062 6.473473131933483 2.3029435287156517 -1 0 1
1016 1 2.3330519389230693 -0.4111013309119924 -0.14924567597990723 0 2 0
732 1 13.594233680579611 11.575418553524662 -1.156147689351227 1 -1 2
19 1 18.734082707378203 12.142063053323229 5.38196579105194 -1 0 0
685 1 1.6498738237847101 1.2268806731898279 2.951955589401586 1 1 0
346 1 9.697245093744295 0.3255775019295455 4.709325315903551 -1 -2 1
1217 1 6.288547294941235 0.005642108393213219 2.3829100549877245 1 0 1
1236 1 23.145887796351342 11.393699188424542 1.8108359582556783 1 0 0
1074 1 21.257045756342375 -0.6706492891106446 3.87201337101098 0 0 0
62 1 16.005549556018707 8.906572460184096 0.9762716800710485 0 0 1
373 1 14.747917842635996 0.8536211748658755 3.8062753255861024 0 1 1
1171 1 -0.2987917401900717 5.870636013504313 2.209487706769109 0 -1 1
226 1 20.94438225091173 4.900499508868628 10.750703715636297 0 -1 1
439 1 8.505948446841705 4.56905956355057 3.1910436963485838 -1 -1 -1
1013 1 25.770669962050185 11.352213403511428 12.272283844185505 -1 1 0
1068 1 12.497899890218031 2.4215769865362216 4.9357133552769685 1 1 1
1078 1 12.044348219840943 1.8803618077221915 -1.1062437517109163 -1 3 -1
551 1 13.578424285577453 2.421754436142895 0.8102279660794367 -1 0 1
409 1 9.96434353428505 2.3055985478582564 3.858047139916568 0 0 -1
1207 1 13.214219417340274 10.906991498198469 0.8271069074650166 0 0 0
1324 1 9.92320939921239 7.698061591957957 3.3485218872235087 0 1 2
853 1 11.617696620993353 0.8346963844188129 6.375065906307469 -1 2 0
820 1 2.8864023060366204 -0.8362843798995436 4.6286774074188495 -1 0 -1
1297 1 16.97340043593317 0.6591486204862855 4.770205941959164 0 1 0
810 1 25.66513897645178 -0.07255938221504898 -0.2601247737436885 0 -1 1
333 1 0.8259998813669229 1.013108509680725 10.028738131860335 2 0 -1
1139 1 14.56681755701052 -1.6513314349751256 -0.37942514597660515 0 1 0
620 1 22.491725947445847 10.617832954930764 11.01341013225768 -2 0 1
598 1 17.46584210091607 -0.8954522520239345 6.519928239115782 -1 -1 0
207 1 13.517900574642365 3.3532293855181825 -1.683063636839247 -1 -1 2
11 1 24.69484701868942 8.52345000719283 5.7918898514894765 -1 0 0
770 1 23.42241265820475 7.140475599454289 11.267195874156076 -1 1 0
679 1 20.512880957064482 1.9908739851663406 10.541012039933031 1 -1 1
183 1 16.464686342416307 3.337591841942496 0.2501888023225316 -2 0 0
549 1 21.248735138851096 7.047206541824622 0.9956187146255968 0 -1 2
148 1 20.41588832606424 0.437706911845984 7.122597633919689 0 1 1
1259 1 4.527735419701106 9.034496759891388 4.197926401603938 -1 -1 -1
830 1 2.430657490850347 8.786468752479458 12.232596997051752 0 0 0
1049 1 -0.9478082575596705 -0.03007598758064245 1.0460238233143797 0 0 0
266 1 7.1832211824442584 6.074391323002331 -0.9894414609317765 0 1 1
988 1 25.499687666468798 -0.45642086617207056 8.083166564223317 0 0 1
1115 1 22.723677796297125 3.720980514438306 -1.1028902167373085 0 0 -1
502 1 23.07073290444683 -1.5651033332357496 3.172863647741897 -2 0 1
986 1 20.481953231167985 11.47041927697615 9.548913454853793 -1 -1 2
961 1 26.62869179854175 4.958949260347302 3.655413873480745 -1 0 -1
858 1 1.895917947935153 8.377415455766345 0.06332397771592913 0 0 2
197 1 5.8169901132249455 4.150073703258802 0.44737536868585703 -1 -1 0
588 1 0.24193118258232982 0.5573675931162096 -1.0631731545051715 2 0 0
113 1 22.617481543759013 11.719309539358113 3.985314694170838 0 -1 -1
1317 1 1.725224147049722 5.566001556887894 1.692869202097905 1 1 1
178 1 2.9950623014823536 6.4636292629555765 8.284603566823534 1 0 -1
1066 1 7.865565069724125 4.50873863253673 0.6158005212168569 0 1 1
491 1 -0.7567558330651909 10.383907583136862 1.6394927000514024 0 0 1
338 1 21.49163947517308 8.70464705889159 -1.3438635450468928 -1 -2 0
101 1 4.268106818736534 11.961108693753456 5.132217604980192 -2 -1 0
189 1 22.111821434201268 12.17716688672593 7.892894439803083 -1 -1 2
1059 1 7.596535162622997 2.2271616349354018 4.844244564524036 1 0 2
1184 1 11.110781569888246 8.096427024188685 4.914223330146749 -1 2 0
855 1 13.832882040333796 8.43154780986015 1.7418334075029236 2 1 1
658 1 9.337572880728134 6.972464669709806 6.207387801564202 -1 2 1
492 1 9.35585750094214 8.180700761411062 1.0791188939589005 0 -2 3
957 1 8.49965679198214 8.844754207323138 4.793594988885587 0 2 2
293 1 14.688873328076845 4.2531961294257155 1.454262397894547 0 0 -2
834 1 11.44308231248879 7.539334417484824 0.6128387468719079 1 2 0
622 1 15.092402309301676 5.833647460220445 4.719250670617091 0 -1 1
629 1 16.207066876689154 -0.64147475417622 9.246566628211148 -1 0 -1
224 1 12.365471495145334 9.48377870557661 -1.1987976763285455 1 1 1
1295 1 2.152506100476274 1.7753190491824564 -0.9332934741228895 -1 1 0
1165 1 20.231590459834045 9.518563856215295 0.7745624126492627 0 -2 4
628 1 16.723156736275307 5.53078314129388 2.12829445088834 1 0 3
729 1 18.655198867847616 2.6386772359555737 1.2318976650015436 2 0 1
1159 1 13.717030446562331 -0.20153440547772195 2.182568737098361 1 1 1
1027 1 26.38350742938187 10.366927280839645 -0.12433249270739877 1 -2 1
31 1 5.755914261610317 -0.48756435582545854 4.808937969861842 1 1 -1
920 1 22.746920031459926 1.4059820043303315 0.6424972080246976 -2 0 0
51 1 23.35452428291455 -0.6511724786111897 -0.4730185167137191 -1 -1 -1
227 1 26.552000511231242 3.6568667721703862 6.718913600190357 -1 0 -1
1084 1 23.350312734867007 4.662531405099356 3.7816964852409 2 3 -1
999 1 -0.8505078300745077 0.714795796018266 3.059744830553294 0 0 -1
1143 1 26.489007790363036 5.351827141312635 0.6022700449488068 1 0 2
325 1 16.26093303833458 -0.7494223986913546 1.4573453748876033 0 1 -1
343 1 20.347997881843433 4.666081658035554 -0.47260274070441755 1 -1 0
1329 1 -0.35815883588546504 8.14058989240993 1.106809469882323 1 0 2
903 1 24.940538689651497 7.096396416780221 -0.13562996046478126 0 -1 1
205 1 9.736705479551311 -1.6510248694910592 6.747858938966475 0 1 2
1048 1 17.420996974744593 -1.8270192130100327 12.271605719675208 0 1 2
1371 1 1.2504542696129164 11.854859738407882 -0.3193873597669312 1 1 1
1122 1 18.935009085821132 4.140158844086901 9.425116512547138 -2 0 1
107 1 1.5185898308099977 4.3835013474722135 -0.22005035378879345 3 0 0
1173 1 2.5335520568769203 9.100316425485984 2.0905244350828167 1 1 2
1253 1 22.518737418182486 6.145269333973324 -0.7161721770392533 1 2 0
536 1 -1.5649151431648722 7.6687887695075965 3.0329725148455546 1 0 -2
457 1 17.804793967226836 5.205889703322314 -0.4764839029411565 -2 0 1
966 1 6.087079307070719 7.047677839885061 4.280224369492528 -1 1 1
867 1 9.031066124765625 1.3297014544287014 -0.44424181483191405 -1 0 1
960 1 -1.1929848425291076 4.109375527618287 -1.479418371078944 1 0 1
984 1 3.007974780968465 10.738309067998596 3.836369368028662 1 2 1
1035 1 6.799794079549953 -0.05767912574527756 11.732423218545662 1 0 0
24 1 7.204568954817191 9.80135592289679 6.30479793325547 0 0 -1
795 1 6.723470893788871 9.411515134543682 1.1164366932331227 -1 1 0
737 1 4.808630338813435 -1.7541138476238358 6.379038661031988 0 2 0
1323 1 10.137451783677033 3.6417969990688484 11.88151390271801 -2 1 -1
1183 1 -0.054893374656463045 10.117031590884956 -1.60105532778648 0 0 0
621 1 18.471659277055558 -0.1563736713261581 2.8937003704029545 -1 1 1
12 1 4.807308730020128 8.229229849339596 0.9833623728910363 1 1 0
1322 1 7.922140918069697 10.341173253726325 2.0426514445009736 0 2 1
523 1 11.272654471359761 9.279231340743575 1.815095911454378 0 0 1
349 1 20.359811384651927 10.15589459304614 11.07856931742316 -1 -2 -2
168 1 19.411775454104163 7.738936718673312 -1.3324844467147534 0 0 0
1260 1 14.889301001533997 6.568753721081372 0.07118268688406437 0 1 -2
556 1 5.286676014338991 6.174685988269188 1.1128421431446132 0 0 3
131 1 19.629998474413124 6.31304744467602 3.63839554134175 0 0 1
519 1 21.583864791522167 11.933268468659465 -0.7220190053696329 0 1 3
138 1 21.63031972473578 5.55477383962083 3.2671382124347064 -2 0 1
882 1 22.330402713090322 9.578960607301783 3.249479198544991 1 1 0
745 1 13.586231417009689 9.499367152259655 7.951690896019617 0 1 0
1117 1 8.821695430352529 8.183978704734546 9.84021419492701 1 1 -1
245 1 23.33939458341002 9.746177413700208 -0.31893623267808624 2 -3 -2
723 1 23.820501029057404 7.677137749084746 4.321283581608906 1 0 1
1266 1 0.7419348772229206 3.71992220019641 2.6138129325896235 3 0 0
1053 1 0.8807795449031177 0.3233100924492005 5.651649621587812 0 2 0
137 1 -0.9807175316556945 -0.06474463244599837 8.426058082720921 -1 2 0
1163 1 12.677584395044406 -1.5171252505394635 10.382079270602015 0 1 1
897 1 1.2581055666581595 -1.6120012334042648 9.141699961006127 1 1 0
127 1 4.945510746449601 2.1220864089493334 11.20352298751619 0 1 -1
581 1 5.489184359707939 2.4852269445614867 2.7911546914308207 1 1 0
671 1 1.1501113446190443 5.939997644956314 10.047398782002093 1 0 -1
1299 1 0.555794945998723 9.77428894277312 3.2820541679783988 0 -3 0
1215 1 8.744780736541976 -0.7163862737643338 -0.937658180927752 1 1 1
610 1 16.3623896046893 10.529507362249703 2.402738371214414 0 0 2
634 1 11.729503685420736 0.22852227620077414 8.139923891392169 -1 0 0
1342 1 8.195268615179604 8.874352349211362 11.540901130554154 2 -1 1
123 1 12.184881019144111 2.6115543918665924 2.9427380514959394 1 -2 1
406 1 15.697599058911095 9.57254541100108 7.537780995915961 -1 1 1
771 1 8.974777964711176 -0.06241719568528881 2.434066750680736 0 1 -1
863 1 -0.8458912130956899 12.31831351948364 3.8764898029172477 0 0 2
784 1 6.599898642931731 1.560928742304183 9.106753798602083 1 2 0
444 1 19.536529827347987 -1.59868733090932 7.581783927440194 1 0 2
804 1 13.71454860089809 -0.24656692705869876 5.748296198340742 0 3 -2
1015 1 4.971218949675779 10.361732699487494 8.168519535044773 1 0 -1
872 1 17.15962554409687 3.2202027404021107 11.921824699866594 2 2 0
1244 1 3.373991367614644 5.994522757297641 10.288631141675632 1 3 2
926 1 13.113257486690737 5.190383730541381 4.46379441702266 -1 1 0
1354 1 16.86102733590644 8.18103128760947 10.694056767175733 0 1 -1
680 1 19.521942530354337 1.8783746498518106 3.0117978007832873 0 -1 0
1289 1 4.157733628456335 1.1132507672896423 1.6130562171129115 -1 0 3
612 1 20.895636405705204 10.351489080775634 5.679410335670721 0 1 -1
434 1 21.064432171262762 -0.5837570948586479 9.133266446159876 0 0 1
423 1 10.41656477239573 10.798523823377815 0.037019425612126344 0 0 -1
1360 1 23.851471871247913 -0.10954473933783593 4.513710511176178 2 1 -1
474 1 25.230953341951434 0.7904269171598037 6.037250996926648 -1 -1 2
459 1 9.731510060698362 6.206084481763632 0.3368987127612675 1 0 1
159 1 24.714417006711013 11.000238214561106 4.767747486712268 -1 1 1
99 1 23.17502909287184 0.6235290677258418 6.962975369774847 -2 -2 -1
637 1 19.689274307394665 5.522723668514078 1.175887331073386 0 -1 2
401 1 25.16766071984466 1.0800286390330016 2.339476985012266 1 1 0
727 1 2.6590113048611315 3.220165105215102 1.2366291597394654 1 1 1
910 1 5.934662673242203 -1.5579144252194075 9.423592488321862 2 1 0
759 1 -0.5038966889815935 6.086683457411718 11.896539887877285 1 0 -1
312 1 26.3942714057733 5.173140438148482 10.801913124116295 -1 -2 1
246 1 -0.5202651663172646 2.263571139411331 7.2415343238802325 2 -1 -1
1211 1 6.683819064527526 4.472206313085257 4.363032524301306 1 -1 1
706 1 4.179197387465274 4.125688019858118 5.4303792301445375 0 0 -1
1258 1 6.28808455201413 3.040875945988428 6.153017308483571 0 2 1
1200 1 10.186360540639123 4.230768776468117 7.659545151502835 -1 2 1
1296 1 5.795166374221087 0.15925034809352212 7.769501531647254 -1 1 0
106 1 10.620015541831451 5.0567500642726735 4.3254192018814095 1 -2 0
383 1 5.340827703780055 7.958277897684303 8.84399990869562 -1 2 0
572 1 11.297340356537143 9.592075156381702 7.022399190781545 0 0 1
1112 1 8.463756097927815 10.90499422482374 8.856453221065358 1 1 1
239 1 7.469101881595719 7.448904218780477 8.212911064139483 -1 -1 -2
120 1 10.727042560499731 7.634015393927715 8.475661465087937 2 -1 -1
470 1 11.19979327097351 4.415216103914858 9.791929769760575 -1 1 2
793 1 11.860337996259164 6.348363823316079 5.660032358704566 -2 0 2
689 1 18.359750188742286 7.108577814949104 5.721699584153987 -2 -1 1
1060 1 16.88773132331109 5.9456988507261626 7.63861418558678 1 0 1
1303 1 12.612575356121901 6.230020304240531 2.0681472899729245 -2 1 1
1312 1 15.276244910018612 7.098994366953631 9.222253797826625 -1 0 1
965 1 14.420564588359433 5.926413180715592 7.526110251860501 0 -1 -1
1352 1 11.355796304331465 7.427190141570668 11.357920572575154 1 1 1
165 1 16.117617563952376 1.7660792363343458 2.0703961247782336 0 -1 1
199 1 17.974677366948296 -0.8336524623474431 -0.26435888640585326 -1 0 0
400 1 15.134631798095164 3.6255605283347396 5.781928805193144 -1 -1 0
1214 1 19.686749604375247 3.892394387588972 6.34332064695608 -2 1 -1
271 1 19.112682804341134 0.7668305977195997 5.290480691944319 1 -1 0
3 1 22.636786894408424 7.4299795860069935 7.694313785168935 1 -2 0
1218 1 -1.7578996854705402 -1.6369008888445273 4.2656087088628585 1 2 2
928 1 24.930282270999868 1.69188458092187 8.804672035364348 -1 -1 1
845 1 24.29930767490568 2.901285013847602 6.0820690681894645 -3 0 1
1369 1 -0.08865547924474027 2.264581598949353 4.294923865646176 1 0 0
234 1 24.175684351435105 3.943703114743558 7.934029321216013 -1 -1 0
505 1 23.97048640541986 6.171143528096252 9.13010056085101 -1 0 0
644 1 -1.6137681647219277 7.854543876827812 -0.7077795474057746 2 0 0
565 1 2.0199268563510095 4.8903380947409305 4.340863363636167 2 -3 -1
1339 1 1.230848167657025 11.622183043100321 2.0630159825045036 1 0 -1
475 1 25.445381112358866 8.572335872224924 8.241930861116805 1 0 -1
832 1 -1.6375013365944269 10.103527508802935 4.625503320559006 1 -1 0
85 1 25.916019150783853 6.454612465997107 4.859846471966846 -1 0 -2
1125 1 2.4184886576350184 11.821760500411665 8.307123394317111 1 0 0
733 1 -1.666681447807166 3.602231036068585 2.056847770107791 0 -2 -1
1056 1 0.050334033617583485 10.471423435651136 5.944937298195789 0 2 0
1104 1 7.890455649747434 6.266573582116589 5.3944477978725605 -1 0 2
946 1 3.477362783877135 10.625653488993846 0.48470385382740266 1 -1 0
320 1 -0.2903963295571912 6.433249324028019 4.888576194749182 -1 1 -1
510 1 4.371632371236902 10.12952106900577 6.006877698217154 0 0 2
694 1 5.815043917890989 10.236559980445433 11.20468200836928 -1 0 0
363 1 5.054832441835091 5.412545014016148 8.762060931992789 -1 0 -1
859 1 2.4496872481953584 8.153257348560507 10.027763795011348 0 1 0
916 1 2.9038644936672844 7.2191782513113285 5.239389117267918 -1 0 1
155 1 18.687442686666177 0.7666231638825618 9.150335695585987 0 1 -1
568 1 17.454313212153416 3.6098448198619186 -1.8381662652829698 0 1 0
1191 1 11.863397693920692 10.398211761023171 11.305570874734412 -2 1 -1
654 1 11.17239082772575 4.554272217832233 0.3093492458568967 0 -1 0
1025 1 6.565182556528354 11.820799693617953 5.744018418693901 0 2 0
1213 1 14.750203087143827 8.557427047865573 -1.3953818375305502 1 0 -1
374 1 6.828057014157174 2.6452261602517924 -1.1414781160432121 -1 -1 0
948 1 5.908379147828462 7.8884026927085955 -0.900389755331731 2 1 1
552 1 6.431971985198489 10.2778074375857 4.1040922542315945 -1 -1 -1
328 1 8.317345151253388 11.52886862454483 4.164234494320439 0 -1 0
395 1 17.675313389236432 3.6660955564977904 5.628659454490459 -1 -2 -1
262 1 10.010657052935382 1.7574022413757655 7.71305512592142 0 1 -1
387 1 0.373414903504274 10.391784084554258 8.664822428834453 1 1 0
1251 1 17.41208818414478 7.995770160056658 8.522164600302832 0 1 2
823 1 7.048305741985889 0.7321154113554482 -0.05273681271202446 1 -1 0
411 1 22.145573462813147 8.525025220977932 9.440247007516327 0 -1 0
890 1 21.839949278388424 3.950575275380457 6.019586217063427 3 1 0
431 1 20.146900773890604 3.664601565081604 4.148931788375135 0 0 1
267 1 25.31139903967847 12.389324350000209 2.5066623660999197 -1 -1 -1
440 1 22.35287704607993 8.927553454571687 5.47151078256722 0 1 0
749 1 22.923306060845956 4.939463284451439 1.0755222236050126 -1 1 1
164 1 20.501983694837758 7.3142324193458315 6.783681518511102 1 -1 -2
766 1 25.931742308380446 5.613930967844867 6.967360147953492 0 0 1
1212 1 23.226229423668492 5.788056660385234 6.0854781961537965 0 0 2
1222 1 25.818127696083373 9.990731347295599 2.3924799055302612 -1 0 0
1010 1 15.734570761695274 3.543913229908875 8.132095584313387 0 1 1
89 1 25.302994809648048 -1.5407755043311884 1.2071687313489519 -1 0 3
1346 1 9.295948793262871 9.102107798179066 7.996695730464795 2 0 0
708 1 0.025063703729736764 2.9589354516391335 11.060341127954548 0 -1 -2
624 1 10.682266810685821 1.6764330896843869 9.937747477114721 1 0 0
562 1 19.17596861784385 7.960391235536854 1.9656289245926342 -1 -2 1
382 1 1.4808785034188139 0.27924977899661263 7.5889935200296055 1 0 1
34 1 24.83713963150848 3.04330950564579 -0.38958485329639014 -1 -1 0
38 1 1.398340936754424 -1.7427778948117485 6.295847229155909 0 -2 0
396 1 8.426251877638602 0.631122925585839 6.658073562020249 0 -1 1
117 1 14.399903895784277 1.549648532606669 7.246221704501041 2 2 1
531 1 2.4341177021970006 1.733878676573727 11.015453358173252 -1 -1 -1
244 1 13.901977041639933 9.184131490776663 5.73061309998509 0 -1 0
726 1 8.930966639926718 0.5995149293490862 9.905592035341632 1 -1 -1
344 1 26.373344901782637 1.6955501677928617 0.252641954117633 -1 1 0
187 1 11.097412671591858 -0.7662743110638852 11.142268481183477 -1 0 0
602 1 6.124801071334128 4.0793003386549875 10.236965207321404 2 0 -1
21 1 13.278494025360152 6.466667511693876 11.511754807520038 -1 0 0
1093 1 1.620804196481675 8.604161226126912 5.200091774629044 -1 0 3
860 1 26.50320800600591 7.8509442804722305 11.728787703345144 0 0 -1
385 1 14.165897489598482 -0.6498560797831494 8.19222638099761 1 2 0
665 1 13.11292718422781 10.929045944588536 9.750664927192508 2 0 -1
1062 1 12.85826975159539 3.305965884849491 11.14506079558589 0 0 0
1269 1 9.582236047201189 10.756398713981126 6.073188991513864 2 1 2
341 1 1.731951148372814 11.684702064976744 5.658671270707222 0 1 1
1363 1 18.41900809684214 11.878862966372196 10.534112858395792 0 0 2
81 1 16.57452386931442 2.172423157111824 6.9938770217749475 -1 -2 0
366 1 18.908749125654882 4.2817476170485005 12.34338244960216 2 0 -2
899 1 16.94463720563247 -1.5969760995614335 3.946803567501722 2 2 0
763 1 22.186678005616407 1.9911205893550838 8.903714110040074 0 0 -2
240 1 23.695667669110993 2.5378841213381635 11.828744335577454 1 0 -1
1170 1 20.7971016225565 10.990017262668895 1.9032403071251704 0 0 -1
429 1 25.132466368680557 -1.4241295205892253 5.944418350884986 0 0 0
211 1 15.455572495221041 7.256062976165371 2.2707110494084546 1 1 -2
480 1 17.009134595862378 5.387263881502982 10.575298643055861 1 -2 0
1219 1 -0.5420151680751408 4.704524540976841 8.453036663548906 0 -1 1
878 1 11.240159155848536 -1.2266409099356337 -1.4663478766486446 0 2 2
540 1 3.3502783819855493 -0.0182752245494171 9.762498320322752 0 -1 -2
1175 1 16.323431321263566 10.50303625411063 10.570568463100072 -1 2 1
616 1 26.456907074643365 9.419519718664725 9.977060650541167 -1 0 0
345 1 3.7126017180030173 -1.2771030976906186 12.204439212523257 2 0 0
1220 1 3.7275104824678946 1.7778534583708252 7.8430217890888745 0 0 1
264 1 2.6404149630805565 2.5786229181109057 4.92013771713937 -1 -1 0
79 1 2.3417508841951413 8.788519907219557 7.795144171399752 1 -1 0
212 1 20.650663959313643 3.5972522040975825 1.8805007542686107 -1 0 0
55 1 22.71350078241834 1.8061235340682322 2.9755825617011187 -2 1 -1
950 1 1.4101870329237824 2.6540990506141506 8.027842524774263 1 0 1
1309 1 4.9380751274247405 1.8892866468760476 -0.37354855145118826 1 2 1
573 1 17.147711466072348 10.97272965538385 -0.2633800763704486 0 1 0
626 1 0.9679674158155982 -0.4185286560856232 1.3762703833798131 0 1 3
1097 1 23.41916908355623 -0.11736557069699916 9.604468684967154 -1 2 2
1076 1 -0.3554860166433196 11.673882167929328 10.751769663656853 3 1 1
467 1 0.7163328766643002 7.44472793973593 8.327146754300664 -1 0 0
1083 1 7.474756628693013 2.677680269781428 10.949232247021763 -1 0 0
1283 1 23.91832785939601 4.143801063888958 10.48999502992637 -2 1 -1
1100 1 8.435087303454573 3.1893436837029796 8.14239319795526 0 2 -1
417 1 11.840723708384342 11.629552942517433 7.0203245984598475 0 0 -1
1020 1 9.86184671145038 10.212979719672758 3.24275471610226 -2 1 -4
313 1 12.682731327703232 2.695689212896487 8.884907408556987 -1 0 1
296 1 24.522549082442072 -1.2448707959869019 11.032846590414879 -2 -1 0
61 1 9.296129545246563 5.78567755434695 10.688822363430132 2 1 -2
586 1 16.200464522803763 7.680770822642792 6.400663943991054 1 1 -1
765 1 22.385537613115474 -1.2825531702194155 7.185062027145577 -2 1 0
124 1 24.37426152337563 11.355145005062099 -1.181392486041678 0 -3 -1
553 1 15.144573330171973 1.8187419412808294 11.212093516191365 -2 0 -1
1146 1 4.034345433523612 6.14130280538571 3.054297835238599 1 -1 1
1086 1 20.09179304897191 8.248147271969716 10.572901627497412 0 1 2
707 1 19.302876206266603 6.017602629776378 10.46333904317657 -1 0 -1
1336 1 16.962442293138928 0.37866924844728445 12.020022518336814 -1 1 0
379 1 19.341646509595236 8.866721586643363 8.68305463155025 0 0 0
1205 1 3.3619258939232344 10.72829667772638 10.13796859728855 1 0 3
571 1 24.394710592862094 10.823475057970432 8.07042281150292 1 1 1
1233 1 2.976878212631507 3.966561365860959 9.692588592871038 -1 -1 -1
956 1 26.300616729210503 2.6645801494124113 10.000842521854475 -1 0 1
140 1 1.3033327211609267 5.410423457245525 6.408295938852843 -1 0 0
854 1 13.000415654948027 6.574917813228215 9.175597575908162 1 1 -2
781 1 -0.08808658029295469 8.232259383449502 10.36237230142434 -1 -2 -2
1362 1 -1.422990853312815 10.393531153759168 7.429204254501936 1 2 0
430 1 26.631423261267436 6.728958964058858 9.180978277950203 -2 -3 0
2 1 10.231483911642961 10.362134027432285 10.170115947674178 -2 1 0
738 1 -0.15543424106256376 4.009668078025523 5.308333320540251 -1 0 1
228 1 4.605327459479657 -1.7662565179337713 2.9984975820316286 -1 0 -2
172 1 11.326084115280633 11.61458280425642 4.3559937504918125 1 -1 0
1357 1 6.167548657241053 7.118528123484024 10.519134997905288 2 -1 -1
1 1 19.219699517219986 10.908588667946784 3.5586245798197425 1 -1 0
812 1 -1.2168880976663337 8.39834631266675 6.581879812322098 -1 1 0
284 1 2.1038507909807564 6.355023669942099 -0.3787481792852121 1 0 2
789 1 8.506294417752523 11.13562892178325 11.503512365367428 0 -1 0
1042 1 -0.068893689971254 -1.2137639336471535 11.127241847861963 1 3 1
52 1 15.182948063523405 0.5200005884416417 -0.5627088626868777 0 -2 2
1238 1 17.514239941658094 11.120632221650457 6.945979025458396 0 1 -1
1101 1 17.017138896204887 8.177674170679678 4.2820945907827594 -1 -2 1
614 1 19.420847916183604 8.89964303806044 4.036061597542039 -1 0 0
936 1 11.890574389406826 0.06926313911531401 3.8732075457966326 1 0 0
964 1 5.138093855018992 -0.2581823746118803 0.016818964231551492 -1 0 0
857 1 24.20362740492955 8.907241049727276 9.910333928190738 0 2 -1
9 1 21.0189963363132 12.36560820073438 6.152711484868684 0 1 0
485 1 0.35634910245992524 9.630308486195236 11.50745460767057 0 2 1
33 1 21.521149183689925 6.570558813525841 11.98476015984392 1 1 1
979 1 24.70962795055623 5.362067794378527 -1.6084604191401146 0 1 0
460 1 11.194783616113552 5.468877385142547 12.036959909885699 -3 1 1
902 1 26.558937841938103 3.5386952859603937 12.302202312342585 0 0 0
1023 1 10.098320552174682 5.3131959943794556 -1.7654181620165876 -2 1 -1
698 1 9.762390839524585 8.910848295413217 -1.3068704229764716 -1 -1 1
1355 1 4.725012016180837 4.255815346960083 12.355161150579638 0 1 1
203 1 24.030820271029658 0.9602153417359576 -1.2446956879195343 -2 0 -1
399 1 17.83368833461027 12.355760389834028 2.524048596706227 0 0 1
188 1 10.46318394575396 12.279618336167962 8.851931506653113 0 0 -1
1021 1 6.222888661833592 12.38039485628637 9.877644577441545 0 -1 0
1105 1 19.446374609421763 12.350550794738629 -0.7692085296682833 0 0 -1
1277 1 6.779197088638602 -1.1028958333095624 -1.7819204647145988 -1 1 1
869 1 18.84765599640291 10.269759833928244 -1.7700091748867415 -2 -1 0
669 1 10.654805365958593 -0.3374410943156805 21.809674790634848 1 1 0
301 1 7.303990514436245 7.190227299341197 17.618030751475132 0 -1 0
280 1 3.944366620057103 1.652268119692403 17.264635666047504 -1 1 2
1098 1 6.087205982783736 3.3663743604197567 15.67960169760726 1 0 0
102 1 8.864451434830176 3.5472521079935557 14.612312917521223 1 0 -1
1019 1 8.832768377779864 5.757177531058989 14.532336697146746 1 1 1
543 1 8.185117411208127 4.668545826487227 12.667546498209953 0 -1 1
1113 1 7.496673468961491 4.09984615831026 16.991546223946607 -1 -1 1
10 1 10.66547611714081 4.69428153309005 16.57602380338987 -2 1 0
13 1 9.215890107425743 2.0860934151263946 12.986178806661608 1 -1 -1
182 1 26.47434894682449 5.644141829003812 24.112609466728344 0 0 -1
206 1 12.443775036239108 7.498972488722087 17.436476062116284 -1 1 0
1070 1 23.87158437445341 -1.4978586865448562 20.387518312207728 0 1 1
414 1 14.380373471529715 -0.013828639064407122 14.609703566807898 -1 -1 0
428 1 5.917259710168502 11.066329194608079 12.89534676257483 -1 0 0
1350 1 18.994072902347767 3.8363011565832172 18.069316073107263 -1 -1 1
77 1 19.308489439555185 1.4332985079861498 17.527278132384676 1 1 -2
355 1 18.840966149739625 1.945834547087137 15.182794448496157 0 -2 1
914 1 21.830804303220884 -0.33969006755552367 17.155334638271334 -1 0 -1
1118 1 15.8487282662592 3.990759450862517 20.881830500374484 0 1 -1
748 1 0.6176439222439285 5.633272421256748 26.626042518445185 -2 -1 -2
1192 1 26.63543020678357 -1.6814397771873666 14.455013430758918 0 1 -2
675 1 -0.4674823088183502 -1.7506593557721923 15.929548602526403 0 0 1
446 1 3.175627406829074 2.219515883833796 13.252581578758488 1 -1 0
121 1 23.870974069096533 3.120057019341661 16.167474283513027 -2 1 0
403 1 23.273400687787554 1.3278096534942678 15.034356088677015 -2 1 0
933 1 26.161283226957703 4.009474173831866 15.064231068425496 1 -1 1
1306 1 16.049266985650156 2.0002876847446163 13.761816383809139 0 -1 1
270 1 0.884975436106719 2.244863512332847 14.90228438773429 4 0 1
1005 1 -0.610677576859926 4.487434288916712 17.163610702447563 -1 -1 -2
1349 1 -1.2540663837040924 5.50683622358 13.709354177995678 0 2 1
720 1 20.071608322280003 8.950750183306331 14.890824115705424 -2 0 1
935 1 23.62771646100411 11.669620910359598 24.38564182330238 -3 3 -1
288 1 24.486107065262015 1.2395903470210436 23.118029010981132 1 0 1
700 1 -0.5065478572091175 6.560902818330581 15.53734723026438 2 2 0
898 1 13.446110490036853 1.2982896251487577 17.20363051921078 0 1 -1
1006 1 4.966949019193607 6.832496558301569 20.703183908230752 0 2 1
1081 1 13.29452817912956 2.652743948351352 14.766102919715983 0 0 -1
322 1 14.898408820346397 9.460829705082855 22.929302130067907 1 1 -1
659 1 1.2111156210656722 6.900020516089963 12.95163648370856 1 2 2
1298 1 5.640263626474904 6.3012812574917625 16.355560108670552 -1 0 0
39 1 4.404379154689663 5.549097589962114 19.060646279486082 0 0 1
1313 1 11.330525551813519 1.374756236117359 18.31719728258501 1 1 0
862 1 3.481042876536133 6.048117880296092 16.223472559924506 -1 1 0
886 1 11.48535013277277 -0.965678911688762 19.339418232518096 -1 1 1
216 1 13.159448735815515 4.443266003140895 17.11555164297793 -2 2 0
1072 1 14.634388301122875 5.31288246241788 15.934425398199938 1 1 0
561 1 9.647614546249867 7.1816958172803815 12.76420206525341 0 0 1
1234 1 1.4943823161069085 12.235072047418962 24.8935357330339 1 1 1
1221 1 17.54565659768827 4.32714644643119 16.267332127047922 -2 0 1
774 1 20.21841503107493 2.1133191917482166 26.344152337763877 1 1 0
1242 1 18.91048069838158 7.24707933107873 16.169905090825313 -1 1 0
876 1 14.707394383960828 7.431841265558955 14.133300231546599 0 0 0
896 1 24.475693966490923 11.035057235737867 15.22679148525873 0 -1 -1
1067 1 15.238949878616268 11.845709733731036 13.788618594740367 -1 -1 -1
318 1 12.678755850737005 -1.3170939477649704 16.499908007764965 1 1 1
1282 1 19.994849119275163 4.943854509938137 16.469908461836702 1 0 2
632 1 21.667595726505212 5.421118333502893 14.550930129525916 -2 1 -1
498 1 21.292176207000516 2.1319056082287116 16.2827222009541 1 0 1
996 1 15.868825111652885 6.346541037127432 26.336348547393573 1 3 -1
295 1 19.62884568305003 2.28804792762074 21.640514463541415 -2 0 0
87 1 20.78697920425501 1.0936333543940222 14.03124113178609 0 1 -1
397 1 21.95196844991454 5.176499045935043 17.451146384256095 -1 0 0
715 1 25.974651546540322 5.444572034544173 19.953854425152763 -1 2 -1
28 1 24.25451370190606 5.296129745214214 13.682400225327498 -1 -1 -1
1271 1 20.646390831419314 7.961831588081038 13.331312974824861 1 -1 1
156 1 -0.05409091738967775 8.564317679318748 15.38062754992308 0 2 1
1136 1 3.1059893953517355 -1.6696621277376875 24.522775179052136 -1 0 -1
569 1 25.38151083747211 2.058065279581545 13.967568643752834 1 -1 0
454 1 24.70569402875668 7.991809362036939 13.322475369285083 -2 -1 -1
405 1 3.427604044020918 11.451722670163306 20.909164669131698 1 1 1
143 1 23.18562520563133 11.241009043892145 13.65861627367134 -1 1 0
215 1 11.021831570999742 12.08503427869131 15.084712312778471 -1 -1 -2
483 1 2.1628788526933036 3.3421354791564957 16.26903745636553 -1 0 -1
248 1 4.992568457175359 11.465750463679921 23.977297067231774 3 -1 0
1030 1 1.8651823557852065 9.786187990518323 16.388961056859653 -1 0 -1
419 1 10.33190017616658 11.602275741823195 18.925635088939032 1 0 1
576 1 25.030965198660375 10.591431158970943 22.862126064222267 1 -1 0
384 1 17.25521832214307 -1.6046681058846024 24.89932773408336 -1 1 -1
922 1 5.984615085364678 8.372301505539594 15.517974047656573 1 1 0
627 1 3.979529536552083 10.070153523146528 18.359594521127875 1 -1 0
292 1 1.5529110514853142 3.259836418320191 19.292447743099064 2 -1 1
814 1 17.93400188796044 11.135671181591501 13.253709810889628 -1 -1 0
410 1 22.9645956783929 4.385998683482082 22.571978984703705 0 0 0