LAMMPS (29 Oct 2020)
OMP_NUM_THREADS environment is not set. Defaulting to 1 thread. (src/comm.cpp:94)
  using 1 OpenMP thread(s) per MPI task
package omp 0
using multi-threaded neighbor list subroutines
package omp 2
set 2 OpenMP thread(s) per MPI task
using multi-threaded neighbor list subroutines
units metal
dimension 3
boundary p p p


lattice fcc 3.5440
Lattice spacing in x,y,z = 3.5440000 3.5440000 3.5440000
region whole_block block 0 7 0 7 0 7 units lattice
region cold_atoms block 0 7 0 7 0 7 units lattice
create_box 1 whole_block
Created orthogonal box = (0.0000000 0.0000000 0.0000000) to (24.808000 24.808000 24.808000)
  1 by 2 by 2 MPI processor grid
create_atoms 1 region cold_atoms
Created 1372 atoms
  create_atoms CPU = 0.001 seconds

variable P equal 0
variable dt equal 0.001
variable T equal 400

pair_style eam/alloy
pair_coeff * * Co_Zhou04.eam.alloy Co
Reading eam/alloy potential file Co_Zhou04.eam.alloy with DATE: 2018-03-30

# write_data solid_$T.in

# neighbor 2 bin
# neigh_modify every 10 check yes


thermo 500
thermo_style custom step temp vol press ke pe density

# timestep $(dt)
#

velocity all create $T 9823447
velocity all create 400 9823447


# # reset_timestep 0
fix 1 all npt temp $T $T $(dt*100) iso $P $P $(dt*1000)
fix 1 all npt temp 400 $T $(dt*100) iso $P $P $(dt*1000)
fix 1 all npt temp 400 400 $(dt*100) iso $P $P $(dt*1000)
fix 1 all npt temp 400 400 0.10000000000000000555 iso $P $P $(dt*1000)
fix 1 all npt temp 400 400 0.10000000000000000555 iso 0 $P $(dt*1000)
fix 1 all npt temp 400 400 0.10000000000000000555 iso 0 0 $(dt*1000)
fix 1 all npt temp 400 400 0.10000000000000000555 iso 0 0 1
# # fix 1 all nve

# dump 3 all custom 100 solid.lammpstrj id type x y z
run 100000
Last active /omp style is pair_style eam/alloy/omp
Neighbor list info ...
  update every 1 steps, delay 10 steps, check yes
  max neighbors/atom: 2000, page size: 100000
  master list distance cutoff = 7.6035394
  ghost atom cutoff = 7.6035394
  binsize = 3.8017697, bins = 7 7 7
  1 neighbor lists, perpetual/occasional/extra = 1 0 0
  (1) pair eam/alloy/omp, perpetual
      attributes: half, newton on, omp
      pair build: half/bin/atomonly/newton/omp
      stencil: half/bin/3d/newton
      bin: standard
Per MPI rank memory allocation (min/avg/max) = 4.326 | 4.326 | 4.326 Mbytes
Step Temp Volume Press KinEng PotEng Density 
       0          400    15267.758    12639.342    70.886264   -6039.8528        8.794 
     500    355.31937    15621.471   -7690.4762    62.968155   -5977.3928    8.5948798 
    1000    397.63265    15555.127    2925.0051    70.466731    -5968.694    8.6315376 
    1500    429.38224    15603.126   -1578.7883    76.093257   -5967.5364    8.6049848 
    2000    403.18683    15589.754   -31.798697    71.451019   -5966.0333    8.6123657 
    2500     382.2984    15568.186     1719.161    67.749263   -5966.9121    8.6242974 
    3000     386.3826    15586.916   -495.68671    68.473048   -5967.6912    8.6139336 
    3500    395.20689    15575.602    1650.4424     70.03685   -5965.1497     8.620191 
    4000    399.25037    15597.049    -696.5183    70.753418   -5965.3204    8.6083377 
    4500    396.02095    15572.223      1588.74    70.181114   -5966.6708    8.6220614 
    5000    401.38511    15587.533   -644.21284    71.131727   -5968.6047    8.6135929 
    5500    404.75796    15593.571   -1282.1952    71.729448   -5968.2646    8.6102575 
    6000    401.19463    15573.799    2010.3746     71.09797   -5964.7905    8.6211887 
    6500     414.8678    15618.395   -3732.6698     73.52107   -5967.7788    8.5965722 
    7000     394.0852    15548.224    3586.3159    69.838068   -5969.0362    8.6353694 
    7500    380.02396    15602.173    -2127.422    67.346196    -5967.322    8.6055104 
    8000    403.33643    15571.853    1383.1122    71.477532   -5967.8838    8.6222662 
    8500    407.55999     15581.53    62.251774    72.226012   -5968.9274    8.6169112 
    9000    390.82212    15605.759   -3017.8904      69.2598   -5969.3313    8.6035329 
    9500    408.59813    15546.336    3550.5935    72.409988   -5969.9537    8.6364181 
   10000    409.06496    15618.824   -3770.8515    72.492716   -5967.8738    8.5963361 
   10500    404.24093    15565.591    1517.8128    71.637822   -5969.8107    8.6257346 
   11000    392.28299    15582.112   -320.63944    69.518688   -5969.3337    8.6165893 
   11500    407.00592    15593.819   -1275.7563    72.127822   -5968.8034    8.6101204 
   12000    407.22642    15566.877    2553.6139    72.166899   -5966.0556     8.625022 
   12500    403.23145    15607.845   -3060.5404    71.458927   -5968.9762     8.602383 
   13000    393.09777    15548.554    3607.1645     69.66308   -5968.8457    8.6351861 
   13500    402.10994    15610.944    -2794.467    71.260178   -5967.1419    8.6006756 
   14000    396.38222    15569.687    1853.0971    70.245136   -5966.8337    8.6234657 
   14500    402.78334    15590.812   -1629.1424    71.379515   -5970.7647    8.6117814 
   15000    403.59504     15597.99   -880.98875    71.523362   -5965.8879    8.6078184 
   15500    402.77435    15532.031    5768.4272    71.377922   -5967.8701    8.6443726 
   16000    393.85694    15655.765    -8160.307    69.797616   -5968.0579    8.5760522 
   16500    392.19564    15528.321    5431.1431    69.503209   -5969.5772    8.6464377 
   17000    393.20542    15606.491     -2463.08    69.682157   -5967.0735    8.6031294 
   17500    401.90367     15579.42    520.78817    71.223624   -5967.5897    8.6180782 
   18000      393.165    15575.132    270.36688    69.674995   -5969.3957    8.6204508 
   18500     384.1698    15587.702   -178.84323    68.080904    -5966.457    8.6134994 
   19000    396.06249    15574.992    1446.9341    70.188475   -5966.0739    8.6205282 
   19500    399.79285    15601.482   -1912.4899    70.849554   -5967.4606    8.6058914 
   20000    400.65261     15550.51    3416.1204    71.001916   -5969.0308    8.6341004 
   20500    401.11907    15621.671   -3901.6605    71.084581   -5966.7057    8.5947697 
   21000    415.33753    15576.123    1387.6462    73.604315   -5966.6813    8.6199023 
   21500    414.08796    15570.247    1226.7115     73.38287   -5968.9882    8.6231554 
   22000    400.77798    15612.138   -3634.0751    71.024134    -5969.293    8.6000176 
   22500    406.33059    15550.159    3094.2317    72.008144   -5970.1645    8.6342952 
   23000    411.31191    15619.284    -3202.031    72.890911   -5965.9219    8.5960829 
   23500    396.70366    15564.736    2686.1152      70.3021   -5966.1123    8.6262084 
   24000     396.2206    15592.216   -1084.3245    70.216495   -5968.0814     8.611006 
   24500    412.60142    15593.511   -844.84162    73.119432   -5967.5784    8.6102905 
   25000    397.94801    15565.515    2186.0874    70.522618   -5967.2058     8.625777 
   25500    393.15588    15617.153   -4009.5097    69.673378   -5968.3844    8.5972559 
   26000    387.11165    15523.935    6597.0439    68.602246   -5967.6937    8.6488806 
   26500    409.08345    15645.607   -6673.1754    72.495994   -5968.0333    8.5816205 
   27000    402.98979    15568.098    2435.1679    71.416101   -5966.0522    8.6243457 
   27500    406.27493    15587.469   -45.781445    71.998279   -5966.3728     8.613628 
   28000    389.71227    15589.071   -681.10433    69.063117   -5967.8841    8.6127431 
   28500     388.3959    15561.484    2564.9918    68.829835   -5967.1542    8.6280111 
   29000    418.77108    15615.216   -2466.4538    74.212793   -5965.5406    8.5983226 
   29500    401.39647    15558.037    2979.1737    71.133739   -5967.3143    8.6299229 
   30000    403.91292    15614.269   -3358.1533    71.579695   -5968.3229     8.598844 
   30500    408.84319     15564.42    1946.5458    72.453414   -5969.1034    8.6263836 
   31000    397.73949    15592.822   -1180.8855    70.485667   -5968.3597    8.6106713 
   31500    388.14687    15592.397   -786.84947    68.785703   -5966.7401    8.6109057 
   32000    408.58301    15559.637    2768.1667    72.407307   -5967.7648    8.6290356 
   32500    390.42748    15614.667    -2080.674    69.189862   -5963.1355    8.5986246 
   33000    406.99438    15573.655     1617.027    72.125777   -5966.6208    8.6212686 
   33500    409.91308    15594.482   -1572.3165    72.643016   -5969.5315    8.6097545 
   34000    388.79403    15577.281    734.57294     68.90039   -5967.6323    8.6192616 
   34500    412.98961    15590.845   -312.99488    73.188226   -5967.0084    8.6117627 
   35000    402.07823     15592.91   -413.97182    71.254558   -5966.0644    8.6106222 
   35500    394.66313    15561.476    2609.3644    69.940486   -5967.1978     8.628016 
   36000    400.77618    15613.673   -3968.7636    71.023815   -5969.6452    8.5991719 
   36500    398.94853    15543.887     3386.184    70.699927   -5971.0145    8.6377793 
   37000    409.66578    15617.571    -3621.648    72.599191   -5967.4994    8.5970258 
   37500    418.31326    15579.453    132.57559     74.13166    -5969.367    8.6180602 
   38000    401.63586    15586.339   -404.43401    71.176163   -5968.3716    8.6142527 
   38500    403.63326    15594.374   -1191.4791    71.530134   -5968.0117    8.6098142 
   39000    413.14201    15578.114    1035.5219    73.215233   -5966.7778    8.6188007 
   39500    410.70088    15595.625   -626.89268    72.782626   -5965.8352    8.6091233 
   40000     396.2321     15581.96    194.75271    70.218532   -5967.8222    8.6166735 
   40500    397.03004     15572.86     806.2468     70.35994   -5969.2368    8.6217087 
   41000    404.81054     15601.12   -12.604003    71.738767   -5961.9134    8.6060911 
   41500    404.83961    15586.126    218.02465    71.743918   -5966.4866    8.6143701 
   42000    410.88937    15588.795   -878.45114     72.81603   -5969.0616    8.6128954 
   42500    408.18956    15583.385    247.00462    72.337581    -5967.493    8.6158854 
   43000    390.63267      15581.1   -126.28478    69.226225   -5969.1035    8.6171488 
   43500    399.59132    15599.924   -558.09287    70.813839   -5964.7252     8.606751 
   44000    410.27787    15572.105    1683.7036    72.707664   -5967.5594    8.6221267 
   44500     390.2117    15605.137   -3215.5471    69.151623    -5970.081    8.6038758 
   45000    395.95913    15552.292    3139.5641    70.170158   -5968.9456    8.6331108 
   45500     401.3244    15608.266   -2434.8205    71.120968   -5966.5613    8.6021513 
   46000    400.65253    15577.736    692.80267    71.001901   -5967.5461    8.6190098 
   46500    403.90428    15567.204    1253.5526    71.578164    -5969.691    8.6248412 
   47000    390.81501    15614.911   -2365.1833     69.25854   -5963.9396    8.5984905 
   47500    403.29452    15549.118    4232.6514    71.470104    -5966.507    8.6348733 
   48000    395.60075     15607.94   -4075.9112    70.106648   -5972.0161    8.6023308 
   48500    396.21684    15555.752    2834.1687    70.215829   -5968.3738    8.6311909 
   49000    406.77642    15594.939   -786.88129    72.087152   -5966.5839    8.6095022 
   49500    399.76453    15585.688    300.22841    70.844534   -5966.0429    8.6146125 
   50000    409.22109    15585.768   -868.48059    72.520385   -5969.9299    8.6145679 
   50500    393.73871    15590.276   -588.38261    69.776666   -5966.9397    8.6120773 
   51000    418.65954    15570.129    2068.7054    74.193027   -5966.6139    8.6232208 
   51500    412.02343    15619.443   -3728.7819    73.017004   -5967.3425    8.5959957 
   52000    407.18769    15548.024    3526.7888    72.160035   -5969.6687    8.6354805 
   52500    402.52415    15614.228    -2804.408    71.333582   -5965.8584    8.5988666 
   53000    409.75167    15592.266   -204.85121    72.614412   -5965.6785    8.6109779 
   53500    415.74754    15564.209    1732.2682    73.676973   -5969.9807    8.6265009 
   54000    402.30813    15603.773   -2522.3244    71.295301   -5968.4423     8.604628 
   54500     408.1145    15569.615    1995.4651    72.324281   -5966.8171    8.6235056 
   55000    404.60575    15611.293   -1809.2015    71.702474   -5964.1179    8.6004832 
   55500    400.63958    15574.094    1207.6131    70.999607   -5967.1816    8.6210254 
   56000    395.42425    15584.094   -364.21758    70.075369   -5968.7275    8.6154935 
   56500    391.52652    15586.331   -573.96397    69.384631   -5968.2556    8.6142573 
   57000    393.89452    15560.356    2417.0125    69.804277    -5967.625    8.6286366 
   57500    401.01793    15615.895   -3261.7112    71.066656   -5966.8114    8.5979483 
   58000    398.51366    15547.981    3548.5631    70.622862   -5969.3049    8.6355046 
   58500    390.54871    15608.133   -2355.4725    69.211348   -5966.4243    8.6022245 
   59000     413.0799    15564.921    2322.2468    73.204227   -5967.5357     8.626106 
   59500    403.44764    15606.334   -1660.9146    71.497239   -5965.2445    8.6032157 
   60000    409.39644     15587.45   -92.292604     72.55146   -5967.4502    8.6136388 
   60500     393.3441    15563.269    2547.1906    69.706734    -5967.167    8.6270217 
   61000    405.23566    15627.723   -4873.7619    71.814105   -5967.8812    8.5914412 
   61500    404.80979    15545.161    5355.4499    71.738633    -5964.654     8.637071 
   62000    396.61438    15617.554   -3041.3089    70.286279   -5965.3886    8.5970353 
   62500    390.42441     15565.17    1890.2768    69.189318   -5967.6787    8.6259679 
   63000    397.35884    15585.166   -245.94842    70.418209   -5968.2332    8.6149008 
   63500    396.58331    15588.903    -654.6049    70.280773   -5967.7718    8.6128356 
   64000    421.83085    15581.107    1120.1997    74.755033   -5966.0401    8.6171455 
   64500     397.8071      15606.7   -1888.0136    70.497647   -5966.0191     8.603014 
   65000    400.68126    15564.917    1767.1765    71.006994   -5969.4383    8.6261083 
   65500    391.12462    15598.108   -1326.4052    69.313407   -5966.5877    8.6077528 
   66000    399.91312      15573.9    1441.9512    70.870867   -5966.2681    8.6211328 
   66500    398.95408    15576.816    704.65668    70.700911   -5967.8991    8.6195189 
   67000    397.54772    15608.349   -3166.7546     70.45168   -5969.0067    8.6021054 
   67500    391.04232    15548.766    3688.6742    69.298823   -5968.1332    8.6350685 
   68000    398.72877    15611.448    -2839.502    70.660981   -5966.6186    8.6003975 
   68500     406.7693     15573.31    1981.4614    72.085889   -5965.5489    8.6214595 
   69000    396.67967    15602.416   -1343.7038    70.297848   -5965.3213    8.6053765 
   69500    408.33456    15573.132    762.84885    72.363278   -5969.6776    8.6215581 
   70000    382.16118    15574.486     858.9665    67.724946    -5967.698    8.6208083 
   70500    393.02929    15597.078   -1904.7998    69.650945   -5968.9821    8.6083217 
   71000    402.24417    15557.297    3141.3382    71.283966   -5967.4446    8.6303337 
   71500    389.31762    15634.802   -5118.7968    68.993178   -5965.3871    8.5875512 
   72000    403.31815    15528.771     5253.778    71.474292   -5970.7482    8.6461873 
   72500    394.20596    15627.355   -4034.8185    69.859468    -5964.811    8.5916433 
   73000    415.63774      15583.6     852.4257    73.657516   -5966.1791    8.6157667 
   73500    386.55214    15577.482     934.6527    68.503093   -5966.2499    8.6191507 
   74000    400.27905     15585.25   -791.64012    70.935715   -5969.6538    8.6148545 
   74500    393.74476    15576.441    546.17153    69.777736    -5968.154    8.6197266 
   75000    397.52141    15584.952     315.0629    70.447018   -5965.8826    8.6150192 
   75500    400.51643    15585.945    141.77071    70.977783   -5966.3556    8.6144706 
   76000    385.44152    15566.809    1431.7083    68.306273   -5968.9309    8.6250601 
   76500    399.63492    15598.133   -2501.8542    70.821565   -5970.6765     8.607739 
   77000    390.66701    15567.835    2392.5421    69.232311    -5965.374    8.6244913 
   77500    408.29426    15599.002    -1602.106    72.356137   -5967.5205    8.6072597 
   78000    405.11045    15586.971   -315.01135    71.791916   -5967.8817    8.6139032 
   78500    408.50703    15560.709    1548.3196    72.393843   -5970.9874    8.6284413 
   79000    396.74495    15617.089   -3848.3275    70.309417   -5967.8825     8.597291 
   79500    404.63042    15554.733    4104.3743    71.706846   -5965.2175     8.631756 
   80000    398.76559    15610.445   -2279.3638    70.667507   -5965.6879    8.6009503 
   80500     388.7774    15577.707    594.21414    68.897443   -5967.6316    8.6190257 
   81000     397.5749     15573.47    889.21802    70.456497   -5968.3606    8.6213707 
   81500    400.27537    15595.849    -1499.803    70.935064   -5968.2442    8.6089997 
   82000    404.08703    15574.588    1112.9176    71.610549   -5967.5664     8.620752 
   82500    396.25772    15591.738   -459.19892    70.223072   -5966.3252    8.6112695 
   83000    377.06373    15576.187    272.35349    66.821598   -5968.4544    8.6198671 
   83500    386.82712    15579.017    471.70445    68.551823   -5967.2868    8.6183012 
   84000    405.87713    15593.921   -784.00952    71.927783    -5967.054    8.6100644 
   84500    408.27082     15564.36    2525.1358    72.351983   -5966.7969     8.626417 
   85000    401.91971    15633.383   -5152.6059    71.226466   -5966.6169    8.5883305 
   85500    388.62557    15530.628    5159.2804    68.870537   -5970.1539    8.6451534 
   86000     390.6266    15606.225   -2797.7327    69.225151   -5968.3587    8.6032762 
   86500    405.26632    15581.854    78.537773    71.819538   -5968.6763    8.6167318 
   87000    417.39076     15584.64    18.048594    73.968179   -5968.5054    8.6151915 
   87500    405.95947    15601.416   -968.28851    71.942374   -5964.9122    8.6059276 
   88000    392.93889    15557.726    2722.4949    69.634924   -5968.0591    8.6300954 
   88500    398.24935    15602.494   -2260.8934    70.576021   -5968.0767    8.6053332 
   89000    406.03171    15572.607    1477.4459    71.955176   -5967.3093    8.6218488 
   89500    396.82688      15585.3   -723.87439    70.323937   -5969.1755     8.614827 
   90000    391.46545    15586.763   -381.31861    69.373808   -5967.4127    8.6140181 
   90500    405.93978     15570.33    1395.5703    71.938885   -5968.1257    8.6231098 
   91000    410.13657    15628.771   -4643.7873    72.682623   -5966.7654    8.5908651 
   91500    403.43503    15530.859    5792.9371    71.495005   -5968.3063    8.6450247 
   92000    387.31388    15624.453   -4503.0089    68.638084   -5967.1434    8.5932394 
   92500    404.41267    15568.408    1753.6208    71.668257   -5967.5961    8.6241741 
   93000    414.75706    15588.438     126.6572    73.501446   -5966.3165    8.6130927 
   93500    410.57589    15600.637   -2282.4375    72.760476   -5969.2719    8.6063578 
   94000    392.73409    15561.812    2528.8293    69.598631   -5967.1012    8.6278293 
   94500    400.08331    15605.314      -2306.6    70.901027   -5967.3928    8.6037781 
   95000    419.68483    15573.483    1752.5563    74.374723   -5966.7098    8.6213635 
   95500    410.35062    15602.755     -1482.07    72.720555   -5966.3886    8.6051895 
   96000    408.90904    15586.443   -806.43692    72.465084     -5969.66    8.6141952 
   96500    409.65005    15575.983    1141.7511    72.596403   -5966.9174    8.6199798 
   97000    405.76947    15616.029   -3638.4878    71.908705    -5968.133    8.5978747 
   97500    400.77414    15548.664    2955.0765    71.023453   -5970.5777    8.6351251 
   98000    388.05286    15610.648   -3630.7394    68.769044   -5969.3923    8.6008385 
   98500    414.50232    15555.804    3243.8225    73.456301   -5968.0051    8.6311619 
   99000    416.99215    15588.564   -132.95421    73.897538   -5967.2004    8.6130229 
   99500    411.48167    15615.521   -2594.3599    72.920995   -5965.4085    8.5981544 
  100000     395.2893    15555.794    3581.0313    70.051454   -5966.7089    8.6311672 
Loop time of 162.283 on 8 procs for 100000 steps with 1372 atoms

Performance: 53.240 ns/day, 0.451 hours/ns, 616.207 timesteps/s
104.7% CPU use with 4 MPI tasks x 2 OpenMP threads

MPI task timing breakdown:
Section |  min time  |  avg time  |  max time  |%varavg| %total
---------------------------------------------------------------
Pair    | 85.553     | 85.808     | 85.947     |   1.6 | 52.88
Neigh   | 0          | 0          | 0          |   0.0 |  0.00
Comm    | 8.7545     | 8.8843     | 9.142      |   5.1 |  5.47
Output  | 0.006319   | 0.0066946  | 0.0077301  |   0.7 |  0.00
Modify  | 65.83      | 65.901     | 65.987     |   0.7 | 40.61
Other   |            | 1.683      |            |       |  1.04

Nlocal:        343.000 ave         343 max         343 min
Histogram: 4 0 0 0 0 0 0 0 0 0
Nghost:        2601.00 ave        2601 max        2601 min
Histogram: 4 0 0 0 0 0 0 0 0 0
Neighs:        30184.0 ave       30184 max       30184 min
Histogram: 4 0 0 0 0 0 0 0 0 0

Total # of neighbors = 120736
Ave neighs/atom = 88.000000
Neighbor list builds = 0
Dangerous builds = 0




write_data solid_$T.in
write_data solid_400.in
System init for write_data ...
Last active /omp style is pair_style eam/alloy/omp
write_restart solid_$T.lmp
write_restart solid_400.lmp
System init for write_restart ...
Last active /omp style is pair_style eam/alloy/omp

























Total wall time: 0:02:42
