LAMMPS (29 Oct 2020)
OMP_NUM_THREADS environment is not set. Defaulting to 1 thread. (src/comm.cpp:94)
  using 1 OpenMP thread(s) per MPI task
package omp 0
using multi-threaded neighbor list subroutines
package omp 2
set 2 OpenMP thread(s) per MPI task
using multi-threaded neighbor list subroutines
units metal
dimension 3
boundary p p p

lattice fcc 3.5440
Lattice spacing in x,y,z = 3.5440000 3.5440000 3.5440000
region whole_block block 0 7 0 7 0 7 units lattice
region hot_atoms block 0 7 0 7 0 7 units lattice
create_box 1 whole_block
Created orthogonal box = (0.0000000 0.0000000 0.0000000) to (24.808000 24.808000 24.808000)
  1 by 2 by 2 MPI processor grid
create_atoms 1 region hot_atoms
Created 1372 atoms
  create_atoms CPU = 0.000 seconds
variable P equal 0
variable dt equal 0.001


pair_style eam/alloy
pair_coeff * * Co_Zhou04.eam.alloy Co
Reading eam/alloy potential file Co_Zhou04.eam.alloy with DATE: 2018-03-30


neighbor 2 bin
neigh_modify every 10 check yes


thermo 500
thermo_style custom step temp vol press ke pe density

timestep $(dt)
timestep 0.0010000000000000000208
variable T equal 6000

velocity all create $T 9823447
velocity all create 6000 9823447

# variable T equal 400


# reset_timestep 0
fix 1 all npt temp $T $T $(dt*100) iso $P $P $(dt*1000)
fix 1 all npt temp 6000 $T $(dt*100) iso $P $P $(dt*1000)
fix 1 all npt temp 6000 6000 $(dt*100) iso $P $P $(dt*1000)
fix 1 all npt temp 6000 6000 0.10000000000000000555 iso $P $P $(dt*1000)
fix 1 all npt temp 6000 6000 0.10000000000000000555 iso 0 $P $(dt*1000)
fix 1 all npt temp 6000 6000 0.10000000000000000555 iso 0 0 $(dt*1000)
fix 1 all npt temp 6000 6000 0.10000000000000000555 iso 0 0 1
# fix 1 all nve
# fix 3 all temp/rescale 1000 $T $T 200 1.0

# dump 3 all custom 100 liquid.lammpstrj id type x y z
run 100000
Last active /omp style is pair_style eam/alloy/omp
Neighbor list info ...
  update every 10 steps, delay 10 steps, check yes
  max neighbors/atom: 2000, page size: 100000
  master list distance cutoff = 7.6035394
  ghost atom cutoff = 7.6035394
  binsize = 3.8017697, bins = 7 7 7
  1 neighbor lists, perpetual/occasional/extra = 1 0 0
  (1) pair eam/alloy/omp, perpetual
      attributes: half, newton on, omp
      pair build: half/bin/atomonly/newton/omp
      stencil: half/bin/3d/newton
      bin: standard
Per MPI rank memory allocation (min/avg/max) = 4.326 | 4.326 | 4.326 Mbytes
Step Temp Volume Press KinEng PotEng Density 
       0         6000    15267.758    82067.231     1063.294   -6039.8528        8.794 
     500    3938.6694    18504.622    46119.233    697.99389   -5068.2698    7.2557364 
    1000    6262.1214    21234.294    35034.261     1109.746   -4601.6684    6.3230103 
    1500    6200.8961    22667.721    7799.4484    1098.8959   -4463.6972    5.9231653 
    2000    5980.4226    23153.112     3845.885    1059.8245   -4409.9692    5.7989899 
    2500    5954.3541    22931.083    1889.8641    1055.2048   -4426.2691    5.8551383 
    3000    6003.2505    22733.306    7516.7946      1063.87   -4443.1768    5.9060771 
    3500    6104.8516    23066.797    -3180.708    1081.8753   -4431.8842    5.8206895 
    4000    5891.0586    22932.705   -356.07322    1043.9878   -4428.1408    5.8547242 
    4500    6106.3005    22856.139   -6310.6048    1082.1321   -4465.4036     5.874337 
    5000    6081.3302    23199.271    4294.9497    1077.7069   -4403.7451    5.7874516 
    5500    5954.9058    23217.551   -5064.2266    1055.3025    -4403.352    5.7828951 
    6000     6106.428    22656.418    2322.4987    1082.1547    -4475.776    5.9261205 
    6500    6095.2451    23060.369    3242.5713    1080.1729   -4415.3796     5.822312 
    7000    6183.1246    22883.252    2033.2462    1095.7465   -4467.4851    5.8673767 
    7500    5999.3559     23222.53   -289.50429    1063.1798   -4405.9861    5.7816551 
    8000    5829.2162    23343.999    9655.7129    1033.0284   -4385.2473    5.7515707 
    8500    5997.3606    23382.591    4554.5215    1062.8262   -4394.0085    5.7420779 
    9000    5744.1568    22879.538   -754.36413    1017.9545   -4450.0038    5.8683291 
    9500    6043.9433    22682.614    2044.6321    1071.0814   -4470.0653    5.9192764 
   10000    5778.2892    23330.295   -5925.9975    1024.0033   -4412.9918    5.7549491 
   10500    5898.3418    22802.664    13401.002    1045.2785   -4439.6461     5.888113 
   11000    6021.8018    23102.487    57.315956    1067.1576   -4422.4064    5.8116972 
   11500    6043.9741    23052.145    3806.6601    1071.0869   -4431.9323     5.824389 
   12000    6090.7068    22814.235   -988.68843    1079.3686   -4469.6728    5.8851265 
   12500    6256.2821    23091.706    4844.0502    1108.7112   -4406.4024    5.8144107 
   13000    6325.8519    23043.861   -318.64393      1121.04   -4440.5135    5.8264829 
   13500    6085.1856    22744.237   -5169.8203    1078.3902   -4472.7244    5.9032386 
   14000    5821.9731    22827.001    1291.2523    1031.7448   -4435.6267    5.8818352 
   14500    6021.8382    22673.846    8487.3892     1067.164   -4453.6223    5.9215653 
   15000    5628.3224    23536.283   -2632.5304    997.42686   -4362.5018    5.7045823 
   15500      6071.44    23205.382   -4606.4089    1075.9542   -4441.1291    5.7859275 
   16000     5939.746     22718.53   -667.71358     1052.616    -4484.487    5.9099186 
   16500    5952.0723    23030.227    986.92147    1054.8004    -4442.454    5.8299322 
   17000    5838.1553    23359.654   -3109.3901    1034.6125   -4396.6824    5.7477162 
   17500    5831.2214    23053.382    9554.7754    1033.3838   -4436.4972    5.8240765 
   18000    5891.9154    23258.865   -9395.4765    1044.1397   -4427.6057    5.7726231 
   18500    5901.2665    22471.786    13574.436    1045.7968   -4470.8765    5.9748104 
   19000    5974.1398    23238.522   -6302.6533    1058.7111   -4426.6896    5.7776765 
   19500    5890.8472    22865.843    1090.2807    1043.9504   -4456.8985    5.8718438 
   20000    5682.4034    22834.762   -5032.0668    1007.0109   -4461.2373    5.8798362 
   20500    6009.6065     23099.14    870.00499    1064.9964   -4415.1449    5.8125393 
   21000    6098.1509    22898.579    6185.3025    1080.6878   -4439.1213    5.8634496 
   21500    6120.9891    22840.916   -4730.8965    1084.7351   -4469.1766     5.878252 
   22000    6111.1636    22714.306     5139.293    1082.9939   -4456.2503    5.9110176 
   22500    6086.1453    23279.762   -10719.173    1078.5602   -4424.4008    5.7674412 
   23000    5860.5532    22603.004    11766.978    1038.5818   -4453.2001    5.9401246 
   23500    5981.9131     22577.86    15069.012    1060.0887   -4446.6458      5.94674 
   24000    5847.1697     23539.59    -7815.098      1036.21    -4385.223    5.7037808 
   24500    6000.1364    23219.005    985.83339    1063.3181   -4400.7296    5.7825329 
   25000    6099.7104    22735.664    2944.5032    1080.9642   -4466.6428    5.9054648 
   25500    6044.6715    22615.009    11347.458    1071.2104   -4447.9279    5.9369713 
   26000    6067.3833    23036.206   -1931.6698    1075.2353   -4427.2473     5.828419 
   26500     6135.023    23185.094   -4603.7326    1087.2221   -4426.6737    5.7909906 
   27000    6063.9119    23169.408    2528.8793    1074.6201   -4413.2789    5.7949111 
   27500    6084.0224    22999.874   -3143.6493     1078.184   -4438.3368    5.8376261 
   28000     5732.839    22599.566   -960.66604    1015.9488   -4469.6367    5.9410282 
   28500    5832.0462    23095.777    -31.79833    1033.5299     -4416.63    5.8133856 
   29000    6120.6134    23162.429   -265.23012    1084.6685   -4401.0814    5.7966573 
   29500    6078.1663    22510.528    12721.382    1077.1463   -4476.0288    5.9645273 
   30000    6078.4295    23039.589   -1723.2218    1077.1929   -4427.3081    5.8275633 
   30500    6146.1677    22619.698    7305.4538    1089.1972   -4473.3022    5.9357406 
   31000    6081.6825    23138.771    163.74363    1077.7694   -4422.1325    5.8025839 
   31500    6068.4743    22958.129     6697.682    1075.4287   -4431.4316    5.8482405 
   32000    6176.9083    22892.314    -3184.549    1094.6449   -4458.7299    5.8650541 
   32500    6059.5675    22805.363   -5717.1869    1073.8503   -4469.0504     5.887416 
   33000    5940.6209    22943.601   -1955.8549    1052.7711    -4434.909    5.8519438 
   33500    5891.4309    22848.593    8685.7279    1044.0538   -4436.1499     5.876277 
   34000    5797.8202    22998.719   -2420.8017    1027.4645   -4425.3184    5.8379191 
   34500    5911.0104    22989.973   -4140.6201    1047.5236   -4464.8292      5.84014 
   35000     5967.279     23116.04   -9963.0107    1057.4953   -4435.3209    5.8082899 
   35500    6010.0607    22989.429     1007.939    1065.0769   -4419.0288    5.8402782 
   36000    6057.5785    22894.735    479.78914    1073.4978   -4456.3638    5.8644339 
   36500     5931.057    23110.568    5473.0629    1051.0762   -4409.0368    5.8096652 
   37000    6052.3014    22651.872    6129.3384    1072.5626    -4454.921    5.9273097 
   37500    6008.3635    22647.754    11599.307    1064.7761    -4443.906    5.9283876 
   38000    6237.7872    23078.017   -5506.6987    1105.4336   -4448.7484    5.8178595 
   38500    6210.6935    22597.417    9587.0197    1100.6321   -4468.0086    5.9415933 
   39000    6017.8416    23187.795    -3370.246    1066.4558   -4426.7384    5.7903162 
   39500    5971.1797    23260.621   -218.14201    1058.1865   -4407.0524    5.7721874 
   40000    5997.3262    22317.764    12512.317    1062.8201   -4517.8576    6.0160446 
   40500    6071.2901    22995.601   -8496.3831    1075.9277   -4448.4422    5.8387107 
   41000    5806.3264     23414.45   -6472.5864     1028.972   -4401.0917     5.734265 
   41500    5951.7913    22957.253    2706.4224    1054.7506   -4440.8345    5.8484636 
   42000    6048.6061    22661.348    8628.6086    1071.9077   -4466.0486    5.9248311 
   42500    5957.3058    23151.248    480.75983    1055.7279   -4423.1732    5.7994567 
   43000    5841.6593    23048.189   -2010.7957    1035.2335   -4424.7516    5.8253888 
   43500    6109.8078    22879.441   -7763.6463    1082.7536   -4475.3956    5.8683541 
   44000     5909.166    23048.035    9158.1386    1047.1967   -4412.0244    5.8254278 
   44500    6299.6968    22635.478    6973.6357    1116.4049   -4464.5819    5.9316027 
   45000    5992.0684    23328.429   -4256.9064    1061.8883   -4395.4662    5.7554096 
   45500     5884.954    23224.722   -4004.1946     1042.906   -4412.7362    5.7811094 
   46000    5959.6606    22839.999   -1578.4193    1056.1452   -4458.7876    5.8784881 
   46500    6002.5172    23071.339   -188.74206      1063.74   -4440.7746    5.8195435 
   47000     5963.905    23395.194   -8064.3572    1056.8973   -4425.5744    5.7389846 
   47500    6029.3102    22366.121    7361.0622    1068.4882   -4508.3583    6.0030374 
   48000    5859.3863    23335.215   -16597.196     1038.375   -4436.8764    5.7537358 
   48500    5853.1446    22877.317    2665.8585    1037.2689   -4440.1466    5.8688989 
   49000    6209.3079    23038.807   -5459.7454    1100.3866   -4438.6398     5.827761 
   49500    6050.1014    22943.523     873.5898    1072.1727   -4443.3232    5.8519635 
   50000    6079.9468    22979.117    7417.1948    1077.4618   -4425.3523     5.842899 
   50500    6109.8267    23113.209   -6472.9749     1082.757   -4424.8761    5.8090012 
   51000    5854.3182    22868.972    -1729.867    1037.4769   -4441.5105    5.8710406 
   51500    5786.5325    22727.792   -4925.8758    1025.4642   -4473.7052      5.90751 
   52000    5858.6551    22960.663   -639.80773    1038.2454   -4453.0092    5.8475951 
   52500    6025.8573    23244.884   -4540.0142    1067.8763   -4412.0098    5.7760951 
   53000    6258.9375    22714.679    6786.7489    1109.1817   -4448.6375    5.9109205 
   53500    6141.7069    23189.088    -2893.051    1088.4066    -4416.048    5.7899931 
   54000      6137.51    23054.851    4641.9809    1087.6629   -4396.7437    5.8237054 
   54500    6092.1288    22776.296    4865.0832    1079.6206   -4457.2874    5.8949297 
   55000    6059.3624    22985.297     1884.693    1073.8139   -4420.4122    5.8413282 
   55500    6210.1856     22935.15    8739.4544    1100.5421   -4441.9465    5.8540999 
   56000    6050.4085    23059.123   -3958.6305    1072.2271   -4434.8122    5.8226266 
   56500    5724.3298    22613.189     6916.785    1014.4409   -4466.2069    5.9374492 
   57000    5701.7604    23083.251    -7736.737    1010.4412    -4433.351    5.8165405 
   57500    6086.3036    23110.825   -7981.5788    1078.5883   -4464.5278    5.8096005 
   58000    5764.2702    23117.763    -4188.199    1021.5189   -4415.0804    5.8078569 
   58500    5962.2874    23085.143   -3913.9079    1056.6107    -4428.312    5.8160638 
   59000    6142.9733    22683.387    16381.057    1088.6311   -4459.8568    5.9190748 
   59500    6054.6322    22935.813    826.93382    1072.9756   -4444.3748    5.8539307 
   60000    6047.5249     22536.93    11879.421    1071.7161   -4460.3197    5.9575401 
   60500    6171.1626    22909.023    149.28575    1093.6267   -4461.5773    5.8607763 
   61000      6046.63    23181.925    3858.9811    1071.5575   -4409.5364    5.7917822 
   61500    6082.4753    22723.333    11949.547    1077.9099   -4437.3337    5.9086693 
   62000    6093.5334    23087.259    9778.8812    1079.8695     -4395.06    5.8155307 
   62500    6106.6736    22984.501    254.29603    1082.1982   -4431.7884    5.8415305 
   63000    5862.8741     22942.24    1801.3413    1038.9931   -4426.5199     5.852291 
   63500    6161.1781    23086.599   -12582.203    1091.8572   -4455.5328    5.8156967 
   64000    5824.4474    22674.989   -2373.5933    1032.1833   -4473.0915     5.921267 
   64500    5750.2438    22541.606    5021.0252    1019.0332   -4475.7357    5.9563041 
   65000    6055.8304    23501.835   -1243.1274     1073.188   -4370.8811    5.7129438 
   65500    6106.7497    22804.153    5641.9261    1082.2117   -4455.4791    5.8877285 
   66000    5941.2694    23040.177    6695.6723     1052.886   -4413.5062    5.8274144 
   66500    6123.8828    23302.374   -7067.4255    1085.2479    -4430.946    5.7618448 
   67000    6012.6509    22739.456    9093.6364    1065.5359     -4461.43    5.9044798 
   67500    6299.6883    23033.411    8867.8809    1116.4034   -4428.3978    5.8291262 
   68000    6052.8073    23416.334    613.20238    1072.6522   -4383.5634    5.7338036 
   68500    6050.3369    23014.547    2545.4452    1072.2144   -4417.0709    5.8339041 
   69000    6055.8437    23190.798   -130.87851    1073.1903   -4405.8218    5.7895663 
   69500    6099.1165    23134.864   -2646.0577    1080.8589   -4431.1051    5.8035638 
   70000    6278.2715    22831.341    5746.2799     1112.608   -4454.7521    5.8807172 
   70500    6086.7103    22923.168   -2781.6042    1078.6604   -4441.2555    5.8571599 
   71000    5926.5722    22987.296    8779.3449    1050.2814   -4418.3431    5.8408201 
   71500     6033.948    23227.574    4141.8029    1069.3101   -4384.3411    5.7803998 
   72000    6391.1847    22882.107    8621.7176     1132.618   -4433.1844    5.8676705 
   72500    5976.1568    22839.853    12114.899    1059.0686   -4419.6656    5.8785257 
   73000    6072.5748    23610.689   -10931.406    1076.1553   -4391.5135    5.6866048 
   73500    5935.7064    22847.324   -747.70234    1051.9001   -4440.1053    5.8766034 
   74000     5988.776    22604.258    9964.5932    1061.3049   -4450.4771     5.939795 
   74500      6537.07    23353.293   -6264.9686    1158.4712   -4417.9748    5.7492816 
   75000    6128.8092    22933.427    2319.9022     1086.121   -4458.9046    5.8545399 
   75500    5904.4431    23018.648   -7145.8475    1046.3598   -4456.4937    5.8328647 
   76000    6019.9156    22926.402    1536.2208    1066.8233   -4441.5376    5.8563338 
   76500    6057.2562    23159.681    -6534.455    1073.4406   -4426.0136     5.797345 
   77000    5953.5542    22712.508    6127.2287     1055.063   -4453.3186    5.9114855 
   77500    5930.3296    22870.451   -8646.3554    1050.9473   -4455.7457    5.8706609 
   78000    5844.3565    23151.419   -12499.339    1035.7115   -4437.3877     5.799414 
   78500    6009.3927    22559.436     2331.917    1064.9585   -4494.0826    5.9515965 
   79000    6007.5528     23011.74   -7779.3561    1064.6324    -4444.866    5.8346157 
   79500    6030.8998    23487.854   -9027.0824    1068.7699   -4403.0733    5.7163443 
   80000    6116.8101    22751.841   -889.19314    1083.9945   -4463.0654    5.9012659 
   80500    6052.8663    22844.522   -1073.0143    1072.6627   -4449.6699    5.8773241 
   81000    6084.9787    23177.073     1817.052    1078.3535   -4428.0715    5.7929948 
   81500    6209.5864    23056.586    3899.3027     1100.436   -4418.2465    5.8232672 
   82000    6040.3397    22980.778    1856.5359    1070.4428   -4421.1781    5.8424767 
   82500    6265.0681    22966.816   -2068.1901    1110.2682   -4442.7696    5.8460284 
   83000    6074.8809    22633.348    10041.183     1076.564   -4456.8501     5.932161 
   83500    6064.1662    23699.492   -12347.757    1074.6652   -4375.0297     5.665297 
   84000    5955.6311    22627.773    12256.044    1055.4311   -4445.7988    5.9336225 
   84500    5806.7709      22671.5    6149.8871    1029.0507   -4462.2628     5.922178 
   85000    6113.7769    22993.412   -2759.3609     1083.457   -4456.1061    5.8392666 
   85500    5926.6252    23025.465   -1801.5324    1050.2908   -4442.9449    5.8311378 
   86000    6117.4956    22985.252   -8251.4906     1084.116    -4454.168    5.8413395 
   86500    5930.3965    22649.104    11104.824    1050.9591   -4458.6368     5.928034 
   87000    6000.7104    23517.907   -2697.5833    1063.4198   -4375.5785    5.7090396 
   87500    5943.8515    23207.876    -2977.272    1053.3436    -4426.544    5.7853059 
   88000    6024.2108    22725.777   -473.30233    1067.5845   -4479.0342    5.9080339 
   88500    5952.3996    23193.099   -2279.7861    1054.8584   -4430.8288    5.7889918 
   89000    5763.8287    23184.172   -5012.5264    1021.4407   -4421.3788    5.7912209 
   89500     5951.351    22780.143    3801.4068    1054.6726    -4464.941    5.8939341 
   90000    5966.7091     22929.85   -5586.1564    1057.3943   -4459.9562    5.8554531 
   90500    5940.4573    23021.793   -2478.6413    1052.7421   -4438.1608     5.832068 
   91000    5890.4705    23325.819    -13293.26    1043.8836   -4421.3855    5.7560534 
   91500    5980.9587    22960.455    679.52489    1059.9195   -4460.1079    5.8476482 
   92000    5798.4939    22709.976    70.645841    1027.5839     -4466.46    5.9121446 
   92500    6072.1374    23155.103    738.02541    1076.0778   -4414.6993    5.7984911 
   93000    6073.1039    23462.869   -6832.4545    1076.2491   -4388.7854    5.7224316 
   93500    5983.0105    22475.569    1379.2492    1060.2831   -4481.1872    5.9738046 
   94000    6004.9218    22724.882    6326.7103    1064.1662   -4457.9687    5.9082665 
   94500    5925.5614    23334.405   -7757.3087    1050.1023   -4411.2868    5.7539354 
   95000    5868.6512    23209.429   -2083.8523    1040.0169   -4415.9879    5.7849187 
   95500    6109.5083     22500.58    717.74865    1082.7005   -4502.5669    5.9671645 
   96000    5928.6449    23171.427   -12904.882    1050.6487   -4441.3041    5.7944061 
   96500    5973.8174    22943.494   -6636.5682     1058.654   -4447.0631     5.851971 
   97000    5898.2858     23070.15    -9740.884    1045.2686   -4455.5365    5.8198434 
   97500     5772.217    23105.871   -8691.5307    1022.9272   -4442.7315    5.8108461 
   98000    5818.8381    22605.454   -645.45699    1031.1892   -4474.9393    5.9394809 
   98500    6053.8838    23159.123   -3986.1921     1072.843   -4412.0806    5.7974848 
   99000    6047.1628    22963.121    5968.8754    1071.6519   -4426.3784    5.8469692 
   99500    5881.1807    22884.774    1361.9882    1042.2373    -4465.619    5.8669865 
  100000    6182.8627    23207.153   -106.24163    1095.7001   -4406.4838     5.785486 
Loop time of 148.991 on 8 procs for 100000 steps with 1372 atoms

Performance: 57.990 ns/day, 0.414 hours/ns, 671.179 timesteps/s
96.9% CPU use with 4 MPI tasks x 2 OpenMP threads

MPI task timing breakdown:
Section |  min time  |  avg time  |  max time  |%varavg| %total
---------------------------------------------------------------
Pair    | 72.18      | 72.864     | 73.493     |   5.9 | 48.90
Neigh   | 1.6485     | 1.667      | 1.6807     |   0.9 |  1.12
Comm    | 7.5393     | 8.1442     | 8.8629     |  18.0 |  5.47
Output  | 0.0066152  | 0.0070895  | 0.0081744  |   0.7 |  0.00
Modify  | 65.824     | 65.873     | 65.917     |   0.4 | 44.21
Other   |            | 0.436      |            |       |  0.29

Nlocal:        343.000 ave         362 max         331 min
Histogram: 1 1 0 1 0 0 0 0 0 1
Nghost:        1933.25 ave        1960 max        1898 min
Histogram: 1 0 0 0 1 0 0 1 0 1
Neighs:        18545.0 ave       20165 max       17407 min
Histogram: 1 1 0 0 0 1 0 0 0 1

Total # of neighbors = 74180
Ave neighs/atom = 54.067055
Neighbor list builds = 3312
Dangerous builds = 0




write_data liquid_$T.in
write_data liquid_6000.in
System init for write_data ...
Last active /omp style is pair_style eam/alloy/omp
write_restart liquid_$T.lmp
write_restart liquid_6000.lmp
System init for write_restart ...
Last active /omp style is pair_style eam/alloy/omp

























Total wall time: 0:02:29
