LAMMPS data file via write_data, version 29 Oct 2020, timestep = 100000

1372 atoms
1 atom types

-0.07751782081799874 24.88551782081722 xlo xhi
-0.07751782081799874 24.88551782081722 ylo yhi
-0.07751782081799874 24.88551782081722 zlo zhi

Masses

1 58.933

Atoms # atomic

1 1 24.78118034488065 0.013562444493965445 -0.05056726813529601 -1 0 0
987 1 23.090636665050145 12.287154936431374 10.68053585235201 0 0 0
3 1 1.6993040572287403 -0.05586585745631856 1.5427422544528266 0 0 0
4 1 24.825198972504115 1.8224080347881753 1.5542680945492762 -1 0 0
343 1 21.327389305737505 10.671478383894554 10.75137752812105 0 0 0
8 1 3.42999172626637 1.8287323036538838 1.6621115825700021 0 0 0
29 1 -0.016811976505427616 3.5395821659014426 -0.055160572193986956 0 0 0
31 1 1.7892865110407579 3.4854319104399796 1.6320003516117936 0 0 0
896 1 21.354235873594117 12.394689806701047 8.882126024468885 0 0 0
336 1 23.111762176153814 8.938984779276224 10.736391400566703 0 0 0
100 1 1.6409192362811447 1.6337621778235238 3.3666453488577157 0 0 0
294 1 23.02488514259696 10.698198214426194 8.890141820905615 0 0 0
127 1 24.823028359506772 3.5343590739646995 3.43967632484736 -1 0 0
131 1 3.492868643657561 3.4397792849815985 3.5611037133857257 0 0 0
894 1 17.868044581448952 12.398522999897967 8.713203483271915 0 0 0
7 1 5.317347592722526 0.056432404217098886 1.6154696671471962 0 0 0
9 1 7.035846105659166 -0.04759815493846689 -0.008489989324759917 0 0 0
12 1 7.0226240196128975 1.8951166371356547 1.6892867268748362 0 0 0
35 1 5.180483900847114 3.4451172571078774 1.740926916550496 0 0 0
37 1 6.868642189105047 3.4830304163046772 -0.03445239688103962 0 0 0
104 1 5.2383603196877875 1.6886035853018782 3.5424755709663125 0 0 0
107 1 7.140047671248382 -0.06765930934195667 3.2854129178410454 0 0 0
135 1 7.028030697212092 3.6490114062079524 3.4580106713160843 0 0 0
10 1 8.839097443072028 1.7345331745718544 0.010679417704576796 0 0 0
280 1 21.337474244149288 8.744741515646435 8.88019807166789 0 0 0
342 1 17.842901633822667 10.50655767786559 10.63513034217818 0 0 0
16 1 10.724419149511377 1.6659380730974425 1.7225959089513294 0 0 0
39 1 8.82265315822882 3.497323877733007 1.7012012671197927 0 0 0
41 1 10.63416004136892 3.5865049133499936 0.0008274297642001383 0 0 0
108 1 8.839751109696977 1.6986924026422376 3.44113634076323 0 0 0
111 1 10.675263896883202 0.01850368821672907 3.4517663037260298 0 0 0
139 1 10.651962777331418 3.487065736917614 3.3515661422970062 0 0 0
14 1 12.547119239845276 1.5957825443186082 -0.03262923289160493 0 0 0
334 1 19.614485116927394 8.79406619327511 10.715853305775788 0 0 0
292 1 19.61483348813606 10.58817199783395 8.925329326813845 0 0 0
18 1 16.007696725840386 1.7097881807193696 -0.014842936525541903 0 0 0
276 1 17.856831429268095 8.78295118802524 8.787829321701384 0 0 0
20 1 14.08960392736327 1.6825480209466837 1.8290802766670604 0 0 0
43 1 12.44382655604016 3.5906566469218726 1.5800162885223217 0 0 0
45 1 14.2377018013069 3.5419728222980016 -0.049775642601460064 0 0 0
47 1 15.964965077684258 3.5455945023433415 1.7789487942858855 0 0 0
112 1 12.42782019770471 1.722526316394996 3.5067494452710584 0 0 0
341 1 14.248354116834687 10.5309325819055 10.512932636375403 0 0 0
116 1 15.964219848011123 1.714774420228174 3.466520675571213 0 0 0
143 1 14.216413499576804 3.560408189946238 3.476083288118526 0 0 0
985 1 16.044933824269567 12.20580180604179 10.343866950616581 0 0 0
984 1 12.526401430239599 12.348741813928509 10.717965194128181 0 0 0
23 1 19.449803097315744 -0.0725036161154061 1.6740159935287984 0 0 0
24 1 17.77674669070286 1.8189685544657284 1.507172622243537 0 0 0
892 1 14.23451911441947 12.288412380345477 8.891886508154368 0 0 0
51 1 19.485678695034707 3.4296909415907693 1.6224265339294925 0 0 0
119 1 17.591296019721888 -0.046645199484465785 3.4721648912541085 0 0 0
120 1 19.591304865159344 1.763955027148577 3.4227075597960335 0 0 0
147 1 17.762702468450758 3.5564080502546362 3.393530543602706 0 0 0
332 1 16.042320228656912 8.792437571138347 10.479277423736768 0 0 0
890 1 10.773909256403646 12.352964867624815 8.858304219355137 0 0 0
330 1 12.43609423023473 8.780862432463083 10.577684321823092 0 0 0
28 1 21.344323938249925 1.7200404168254344 1.5883776994721839 0 0 0
982 1 5.3832215184033965 12.371187891197076 10.750957986196422 0 0 0
55 1 22.97652228841448 3.533925713238529 1.664008972312708 0 0 0
290 1 16.049520247217245 10.49431673793714 8.767269163542132 0 0 0
124 1 23.07792200897438 1.8061735106747794 3.4331247050769527 0 0 0
151 1 21.24332442323423 3.500708452901278 3.540441756705734 0 0 0
888 1 7.006024859971366 12.365894900982425 8.889740143139923 0 0 0
32 1 0.012984345329070862 5.175179607206233 1.7030381423852237 0 0 0
36 1 3.4107793487262197 5.23531303366105 1.7009555478902256 0 0 0
57 1 24.80871084821351 7.104537075566119 -0.05956625896454622 -1 0 0
59 1 1.5967702112708941 7.123631077542176 1.7542864370666154 0 0 0
61 1 3.4447203008887755 7.0958067275650825 -0.008391676465855327 0 0 0
128 1 1.6198157137611249 5.2018084415317345 3.553380449666234 0 0 0
155 1 24.839154431459054 7.018114956140291 3.5948182059311984 -1 0 0
159 1 3.4766467946936515 6.973403099165371 3.5703439182736085 0 0 0
981 1 1.7484290024057993 12.37354838748024 10.779062626264137 0 0 0
40 1 7.015786760519772 5.378451423295888 1.73498792808391 0 0 0
63 1 5.197939804478723 6.9831138918031055 1.7185605023569221 0 0 0
886 1 3.5346868607667883 12.340775580831652 8.922946215422094 0 0 0
132 1 5.151502865004817 5.132865201289112 3.5260436729171203 0 0 0
163 1 7.024945274689811 7.036446714015761 3.4504595137384313 0 0 0
38 1 8.823244372444456 5.2725559435930265 -0.07383209903486665 0 0 0
44 1 10.502676102028918 5.330696796797996 1.7011453560103442 0 0 0
67 1 8.760885547173269 7.18630835119497 1.782488890272362 0 0 0
69 1 10.5008077935442 7.1551058157181515 -0.04675293944310309 0 0 0
136 1 8.810578960362298 5.36969881736209 3.442735971727388 0 0 0
167 1 10.646356479944718 7.175218614842549 3.475283241937332 0 0 0
42 1 12.3647657641496 5.286724466547557 -0.05132802472253152 0 0 0
895 1 23.2302077526814 12.327623796199743 7.174508146313054 0 0 0
48 1 14.328787948099848 5.3157830451334105 1.7781692618417868 0 0 0
71 1 12.341775599444434 7.083760791288035 1.574592141358906 0 0 0
73 1 14.092210405154475 6.969244457286034 -0.043370692239953795 0 0 0
75 1 16.141747451013153 7.102741452254831 1.647847509018587 0 0 0
140 1 12.537025962152747 5.308235633817269 3.356291735594228 0 0 0
144 1 16.064720097088344 5.423230699689702 3.525604041652227 0 0 0
171 1 14.224701187250597 7.07977425059555 3.459439187861991 0 0 0
798 1 21.292172925742516 12.394715554770018 5.224729258609583 0 0 0
52 1 17.82245255235417 5.275462219303472 1.7436646875666157 0 0 0
893 1 19.598193328624905 12.293062997224965 7.02536422002733 0 0 0
79 1 19.592488249479384 7.198703615857818 1.818899288731615 0 0 0
148 1 19.53160413152248 5.254929051613312 3.4886904999214705 0 0 0
175 1 17.73189836046657 7.124684370541607 3.552853140265655 0 0 0
891 1 15.995621952393297 12.27912663574509 7.023863726360899 0 0 0
56 1 21.22307925821316 5.383964971372779 1.7316133842022188 0 0 0
794 1 14.106575058183559 12.374617202570645 5.1328682481594425 0 0 0
83 1 23.150681780178655 6.968810441475602 1.8747080948668222 0 0 0
152 1 23.089146673701197 5.3021318453053405 3.601138837038717 0 0 0
179 1 21.130340290076397 7.154301881913728 3.5799935805081544 0 0 0
887 1 8.826502202218004 12.373940191461019 7.171975424308124 0 0 0
60 1 24.86743795868203 8.870478479935556 1.7945660442093878 -1 0 0
64 1 3.6055656495190673 8.722110816622036 1.7072990787379727 0 0 0
790 1 7.193054552675391 12.400958239609583 5.1774407516859045 0 0 0
86 1 1.7672858560014806 10.445030236977816 1.6255168381742688 0 0 0
883 1 1.6572475357010266 12.371077578240618 7.185009696634056 0 0 0
156 1 1.74096612785752 8.810707651299989 3.5707384723803446 0 0 0
183 1 0.12833788491168668 10.58925238369544 3.428896622073519 0 0 0
185 1 3.481830746124323 10.386695070723535 3.541647369899543 0 0 0
786 1 0.10635408330842211 12.314615858214145 5.184950989006536 0 0 0
68 1 7.043086095117002 8.894740196277771 1.6811175739984494 0 0 0
88 1 5.46635014721964 10.57518628628672 1.694670478504661 0 0 0
797 1 23.192651333674444 12.251531838784768 3.4952285620157784 0 0 0
160 1 5.340296621584751 8.819638358188215 3.553776262843306 0 0 0
187 1 7.034269312472636 10.792133317871382 3.4608529514017987 0 0 0
66 1 8.757590720705098 8.849544207055294 -0.0004529280999355789 0 0 0
72 1 10.57013065199084 8.950258699189384 1.660351867362149 0 0 0
90 1 8.815968178479634 10.68727312594922 1.7133367366122334 0 0 0
795 1 19.58318400952928 12.32602929205348 3.475961401826504 0 0 0
164 1 8.696514635296333 8.976969200737697 3.418427804053187 0 0 0
189 1 10.724051100203669 10.7392542192813 3.3883442854569825 0 0 0
696 1 14.227471632843482 12.300902136213393 1.539595193759993 0 0 0
694 1 10.705454581308983 12.383545146283716 1.6446116850529264 0 0 0
76 1 14.221396284704683 8.70406766953127 1.655944449454775 0 0 0
92 1 12.497367026851185 10.599303868430404 1.496001287004882 0 0 0
93 1 14.178798221053015 10.554129007913767 -0.06773054440454701 0 0 0
94 1 15.931373406076016 10.628684033649728 1.6784286122974392 0 0 0
168 1 12.39426058775287 8.908322142413331 3.3283751434032207 0 0 0
172 1 16.028146086295994 8.936086210319973 3.531509591306334 0 0 0
191 1 14.185851473361678 10.629001169187438 3.3171895000994973 0 0 0
78 1 19.547138876929665 8.862894435400118 -0.03307896749211926 0 0 0
80 1 17.696306318452336 8.838987192992242 1.6289428563696684 0 0 0
692 1 7.017664577078419 12.375247690318833 1.5520771204709487 0 0 0
96 1 19.45287557216842 10.6035916755511 1.7111601548583442 0 0 0
176 1 19.489086723973983 8.814518554056985 3.473866508993286 0 0 0
193 1 17.768116443015245 10.537225124166667 3.5641605011206967 0 0 0
687 1 1.7492203924258827 12.303513982386967 0.017682405349943378 0 0 0
84 1 21.41248629389484 8.742379304843592 1.7127020033584284 0 0 0
97 1 21.342335756751613 10.636870810899328 -0.012921003355441482 0 0 0
98 1 23.049349903574413 10.555948759146117 1.6826079348088752 0 0 0
180 1 23.001052582873296 8.74694597701227 3.470524607290776 0 0 0
195 1 21.35807694581532 10.576377301723625 3.6366568658570824 0 0 0
288 1 12.408891089301168 10.56874897807726 8.80453033958241 0 0 0
102 1 0.040228001045763795 1.7685244573636583 5.239124452311408 0 0 0
106 1 3.358952188713955 1.6412065816083605 5.109668946450147 0 0 0
129 1 1.60134708061804 3.537742346986266 5.268317292568482 0 0 0
272 1 14.136579226692218 8.794449128333342 8.858997971765586 0 0 0
198 1 1.8586260177431289 1.73212068480566 7.048060063068114 0 0 0
340 1 10.52368204562698 10.556834022644136 10.644154258360967 0 0 0
225 1 24.844398678255747 3.560407821468136 7.188548361618882 -1 0 0
229 1 3.4924621743695727 3.6050767087499342 7.000446623780817 0 0 0
328 1 8.680259867874438 8.779266906528708 10.711143047681388 0 0 0
110 1 7.103659838986012 1.818067220134313 5.081405828033209 0 0 0
133 1 5.243139353548939 3.4251435796792493 5.36263455681426 0 0 0
202 1 5.238383547634775 1.6154164290453483 7.013143500547203 0 0 0
286 1 8.912174166862492 10.555679131484748 8.810893043117492 0 0 0
233 1 6.9058443666211495 3.441047350763416 7.035305988722008 0 0 0
268 1 10.631421054574975 8.848885940487394 8.833601421489334 0 0 0
114 1 10.626409235112618 1.7812251225090774 5.234929855881842 0 0 0
137 1 8.844844805876726 3.48986326700327 5.1679632252929775 0 0 0
206 1 8.826229284623532 1.6973197032610938 7.037809353449224 0 0 0
339 1 7.0362372346229245 10.57820055789516 10.77565829338186 0 0 0
237 1 10.579053376491359 3.6489234481649677 7.010645385888199 0 0 0
113 1 12.34800848881727 0.021702752930576982 5.284308788462905 0 0 0
326 1 5.2241724288133575 8.894794116857707 10.524123467933856 0 0 0
118 1 14.17159319687365 1.782963136864598 5.1736072567582045 0 0 0
141 1 12.40991648353621 3.5263852453767726 5.186250748509482 0 0 0
145 1 16.03635422769746 3.5461835238686517 5.203610527232899 0 0 0
210 1 12.379925248850718 1.8144042941218081 6.9439193980187115 0 0 0
213 1 14.149447339047725 -0.0158033487124231 7.07557480498762 0 0 0
214 1 16.02154770816771 1.59897533945078 7.0003831360715845 0 0 0
241 1 14.271593937665479 3.3980962491916586 6.961447716737199 0 0 0
121 1 19.502976299993353 0.07766065014897933 5.089989764034685 0 0 0
122 1 17.830265110629743 1.6844972377586318 5.197737681319607 0 0 0
149 1 19.41626786395099 3.3838652630497714 5.316201495524105 0 0 0
284 1 5.333889947082942 10.641073221117507 8.773441180200022 0 0 0
218 1 19.639895129761094 1.657974573663186 7.095069911811244 0 0 0
245 1 17.736914776025557 3.4078249138039127 7.140721721420042 0 0 0
125 1 23.0217321529402 -0.07001473491828991 5.120203138990954 0 0 0
126 1 21.299476568887602 1.742126898615855 5.289664146692832 0 0 0
153 1 23.045622756694883 3.53582395794486 5.294961110390527 0 0 0
221 1 21.36304198807375 0.037549665966081586 6.995619604004287 0 0 0
222 1 23.173891895168413 1.774626398525927 6.9474775090907 0 0 0
249 1 21.34745807513883 3.4994259363192888 7.019412913238402 0 0 0
130 1 24.81401936762528 5.2349953857082125 5.371484075139571 -1 0 0
134 1 3.4916379992866093 5.298035268232639 5.303081427011639 0 0 0
157 1 1.573422651710843 6.9880366012209985 5.387647759579677 0 0 0
226 1 1.6256619989702312 5.302627984117388 7.040584810294059 0 0 0
253 1 -0.02051139008267744 7.042878301164888 7.002470980055316 0 0 0
257 1 3.4697236842318016 7.044046636508149 7.050759263124317 0 0 0
138 1 6.945180948408728 5.312618011926025 5.243744943307719 0 0 0
161 1 5.2405342703119935 7.041340354955227 5.293590327758549 0 0 0
230 1 5.279033610742455 5.340669760864874 7.046664471458114 0 0 0
261 1 6.965882535605856 7.086597779928659 6.967141238060374 0 0 0
142 1 10.661200221955724 5.363593337559435 5.184105899811134 0 0 0
165 1 8.884163791081697 6.991761001332218 5.201370160781756 0 0 0
234 1 8.746421315687265 5.366523240872044 6.903241793031262 0 0 0
265 1 10.505014588795865 7.13839125718728 6.902288599230218 0 0 0
146 1 14.299161418414243 5.265504374905414 5.243318006525786 0 0 0
169 1 12.499508813540508 7.052329833239181 5.24851249786545 0 0 0
173 1 15.955861773258345 7.173706199489662 5.303022079902545 0 0 0
238 1 12.404095529024257 5.328752420035031 7.0877733964779654 0 0 0
242 1 16.0532108803659 5.290452320459213 7.076287375813185 0 0 0
269 1 14.161601930214154 7.065096889154116 7.061349902813467 0 0 0
150 1 17.751219088701532 5.329925580441567 5.243108285040587 0 0 0
177 1 19.540745833457017 7.07698820758354 5.328048346849043 0 0 0
246 1 19.631925885198232 5.258383339994061 6.9037531610221565 0 0 0
273 1 17.62881373319024 7.127117772997085 7.08380639810369 0 0 0
154 1 21.19022317476718 5.355204579280134 5.193318456448768 0 0 0
181 1 23.025571712284012 7.11021859275931 5.2789471463045645 0 0 0
250 1 23.13493571079517 5.375243304282463 7.135801143598783 0 0 0
277 1 21.195301939904517 7.080938478640119 7.083621363333087 0 0 0
158 1 -0.05468105211417094 8.98813598159489 5.292548280644374 0 0 0
162 1 3.547107431941008 8.731891856978521 5.284475572684135 0 0 0
184 1 1.7359559589524194 10.669852301974402 5.2693838799511274 0 0 0
254 1 1.656635301031898 8.820197672746994 7.17572465688619 0 0 0
281 1 24.842685025759653 10.554252879660243 7.049448793613708 -1 0 0
283 1 3.598492941236941 10.60432113151208 7.036580062916657 0 0 0
166 1 7.132798173549683 8.861249970986048 5.433269266439788 0 0 0
186 1 5.311082880180875 10.788417681954117 5.18577504627084 0 0 0
258 1 5.277767974685209 8.816494463700813 6.944053304409983 0 0 0
285 1 7.214213371994342 10.699866232071617 7.0417039485790704 0 0 0
170 1 10.70982151364466 8.873968838716792 5.1699385523488575 0 0 0
188 1 8.942867088186647 10.544268889454138 5.294555168388737 0 0 0
262 1 8.836524516839912 8.874221646155577 6.96624246833201 0 0 0
287 1 10.701566472984533 10.589658529386185 6.997425095698105 0 0 0
174 1 13.967110944352129 8.897201636991971 5.208063936922482 0 0 0
190 1 12.396135143806948 10.63077123013655 5.204982628775546 0 0 0
192 1 16.105516782914854 10.679545500495303 5.245829954104105 0 0 0
266 1 12.368779008096862 8.795162055392895 6.987216322352169 0 0 0
270 1 15.78354685474103 8.919307301499574 6.995852823080256 0 0 0
289 1 14.138696730704597 10.639077369656572 7.026797151970975 0 0 0
178 1 17.84562891343979 8.85237908986241 5.352457371694678 0 0 0
194 1 19.623136165319885 10.602842686680331 5.320260566525328 0 0 0
274 1 19.536514410101663 8.771848832912196 6.985234183154511 0 0 0
291 1 17.845224664164135 10.57044096590958 7.053516571271119 0 0 0
182 1 21.279153202780016 8.836224991375246 5.222583390178006 0 0 0
196 1 23.033709552384284 10.566021901702891 5.3399781298619065 0 0 0
278 1 23.20229334161926 8.817653442695901 7.045208287164836 0 0 0
293 1 21.32695045920419 10.53807607022179 7.1567057940794925 0 0 0
199 1 1.6716950599791263 0.06006760344691425 8.75902020264256 0 0 0
200 1 -0.02193062406845283 1.7423927241520314 8.9010157619809 0 0 0
204 1 3.561018993632056 1.6813861239548697 8.822357467670411 0 0 0
227 1 1.7516422993586933 3.4684348309794646 8.757391585802475 0 0 0
264 1 6.959450341590097 8.871750954375877 8.752368240967261 0 0 0
296 1 1.657484549452275 1.6740954951962572 10.638602795661228 0 0 0
338 1 3.525990666483955 10.60519018906342 10.69342659684062 0 0 0
309 1 24.865188227114118 3.4960152525971053 10.660631985876238 -1 0 0
311 1 3.6156778245274155 3.4010995267008397 10.600441890845177 0 0 0
337 1 24.8457257999444 10.63552522863031 10.500644927043567 -1 0 0
208 1 7.158676011016925 1.7666001797122453 8.80790404864572 0 0 0
231 1 5.42267456276837 3.526182678352596 8.948986244090463 0 0 0
298 1 5.322555916155862 1.6452818433042802 10.649209804299295 0 0 0
324 1 1.6530872407770487 8.873015159040808 10.694259523369047 0 0 0
313 1 7.169935116830723 3.520661274026974 10.643242587299051 0 0 0
207 1 8.788113677142416 -0.026091590520154584 8.82069716660669 0 0 0
212 1 10.560803912064646 1.78915469734452 8.75296393749135 0 0 0
235 1 8.824546129949582 3.4647898545694287 8.704073358338537 0 0 0
300 1 8.894941704745433 1.6472982496633037 10.66461382794565 0 0 0
282 1 1.7940735088882602 10.585562886134403 8.880768203612462 0 0 0
315 1 10.510040406398813 3.4603341079666357 10.520390280223907 0 0 0
260 1 3.535272416368062 8.93993537002301 8.727252277344801 0 0 0
215 1 15.96875320676402 -0.05799636981731725 8.724811804936758 0 0 0
216 1 13.97631186470925 1.656504328797026 8.84180514430234 0 0 0
239 1 12.343836227429529 3.515225651673956 8.810036269430801 0 0 0
243 1 16.00148451004605 3.394017048575867 8.781695964667083 0 0 0
302 1 12.30016325698937 1.6944714260103901 10.647936762494664 0 0 0
303 1 14.131032536708048 -0.05278121330601597 10.55361162474457 0 0 0
304 1 15.929386650016628 1.4852217967514938 10.583456539360059 0 0 0
317 1 14.120222116170828 3.2960352905132857 10.532233384110446 0 0 0
219 1 19.553967660251875 0.01812840991958624 8.866223686491452 0 0 0
220 1 17.757865311554948 1.6308286709130324 8.809802941787213 0 0 0
247 1 19.626451694773593 3.4913751351880844 8.924365406262543 0 0 0
256 1 24.833584630272306 8.73202079919249 8.918197322795368 -1 0 0
306 1 19.48165730937283 1.7598038554913447 10.729056452580304 0 0 0
319 1 17.77031509925549 3.435625745269495 10.65963643617888 0 0 0
223 1 23.13569899299781 0.06624761631973888 8.878513852708306 0 0 0
224 1 21.352797926143005 1.731389477804349 8.809501444407129 0 0 0
251 1 23.08399243600075 3.580389884352719 8.846956342171493 0 0 0
307 1 21.379391744826115 0.006262597180562407 10.868673894115126 0 0 0
308 1 23.065983372249967 1.7697208335206644 10.630324091201334 0 0 0
321 1 21.34744347908046 3.6167694267966026 10.684799486736628 0 0 0
228 1 0.04383447285085347 5.384268589035353 8.937991740648535 0 0 0
232 1 3.477401823114052 5.214706701995872 8.819944031524903 0 0 0
255 1 1.9067682368135483 6.987534037648302 8.99064715284245 0 0 0
310 1 1.803185980015595 5.121004136309108 10.796938964424447 0 0 0
323 1 24.83165173306119 7.019428530279739 10.64732605021616 -1 0 0
325 1 3.426300443267334 7.029201843175998 10.757472605848156 0 0 0
236 1 7.0330836454872525 5.244059223758748 8.793674849895286 0 0 0
259 1 5.166638986852459 7.123516970201127 8.646808808435495 0 0 0
312 1 5.255490035525829 5.402213588184073 10.692967030242091 0 0 0
327 1 6.957851435536289 6.934894380323513 10.60306805360853 0 0 0
240 1 10.514748681489259 5.357671873281669 8.60548567673386 0 0 0
263 1 8.875259545111916 7.059786006754695 8.771273001690284 0 0 0
314 1 8.974913087339363 5.365267586583229 10.508477507102612 0 0 0
329 1 10.621768994420805 7.167628085205732 10.72788792714417 0 0 0
244 1 14.204057028981117 5.189466384603244 8.83555875037986 0 0 0
267 1 12.197011013919502 7.1203396384099715 8.746144580254073 0 0 0
271 1 15.873253076224357 7.06053059067339 8.797833902417619 0 0 0
316 1 12.24511019097018 5.351094051260625 10.529703804244157 0 0 0
318 1 16.008411989668037 5.175405182803485 10.636923240074172 0 0 0
331 1 14.131900935900973 6.848963293881907 10.449450419924302 0 0 0
248 1 17.862634339284 5.274064373860567 8.759887046086968 0 0 0
275 1 19.511380095216264 7.113208044843911 8.797565343231248 0 0 0
320 1 19.535975542760657 5.292983437700731 10.641472570069752 0 0 0
333 1 17.658023197735115 6.941866217600651 10.569263299579568 0 0 0
252 1 21.35178808223828 5.2642693566349585 8.863453244996057 0 0 0
279 1 23.074858133074297 7.131422695024319 9.006056754372665 0 0 0
322 1 23.13735492259131 5.202051875375211 10.65087518543772 0 0 0
335 1 21.37167864024888 7.009136325234745 10.74504498650478 0 0 0
344 1 1.7267936583911148 -0.044264123295326314 12.27401733356642 0 0 0
347 1 3.640608040795349 1.6287047891980944 12.359596957717955 0 0 0
358 1 1.7225466496278163 3.4536226198436353 12.373672299527557 0 0 0
360 1 5.38407226865755 3.576018929330852 12.295173705257795 0 0 0
351 1 10.539652807381557 1.7898911579464296 12.318056644944601 0 0 0
364 1 12.466959925956111 3.590280844982897 12.267668563010075 0 0 0
363 1 7.048856821891632 5.297928627780007 12.328646591008454 0 0 0
374 1 5.312694969964979 6.963788819502655 12.376674202599743 0 0 0
367 1 14.176049810837766 5.213978193914684 12.23344386760464 0 0 0
378 1 12.442435412311026 6.98157298804439 12.3661866253271 0 0 0
380 1 15.86511244745555 6.90292566740167 12.203564045542675 0 0 0
369 1 17.68937794474354 5.102665269441264 12.402381480723646 0 0 0
384 1 23.04780668922557 7.1157809943367125 12.301168254128303 0 0 0
386 1 1.808005278411466 10.507399337346818 12.371186305653673 0 0 0
381 1 14.255528091665521 8.631445311811493 12.268024888123428 0 0 0
389 1 12.479091174637746 10.541020463863271 12.369802712567193 0 0 0
383 1 17.683217059389822 8.772316420686682 12.259611824720357 0 0 0
391 1 19.524452142895388 10.495913179349333 12.393414641989036 0 0 0
1033 1 10.638050154056073 12.298148688637463 12.351488499336533 0 0 0
1035 1 17.655145993735378 12.323173149788996 12.319112511931122 0 0 0
1287 1 23.037454886460896 12.385500203498477 21.29630363962362 0 0 0
345 1 24.815673383807706 1.5886575064533237 12.431976631975777 -1 0 0
1286 1 17.839470761127377 12.280107569255945 23.06203645510275 0 0 0
1284 1 14.068889428360027 12.388984002298196 23.05673625736974 0 0 0
686 1 22.925330609423504 10.654558664552722 23.104119248210242 0 0 0
394 1 1.7291725675140943 1.697790959490238 14.066277326447578 0 0 0
395 1 1.6946881334216095 0.01616848708093592 15.873071306252461 0 0 0
396 1 -0.01247825735580417 1.7115376169160381 15.875279957172154 0 0 0
685 1 21.241295447269444 10.655803218864058 21.244177282456903 0 0 0
400 1 3.4149967163029475 1.9003530848876098 15.90856748349178 0 0 0
421 1 24.855807801978955 3.513020417368492 14.204290339313328 -1 0 0
423 1 1.6486579963564698 3.5785053377924196 15.980326462784792 0 0 0
425 1 3.5270508318019678 3.496141948540745 14.133133553137311 0 0 0
672 1 21.184730592307023 8.919622670089032 23.06833312625601 0 0 0
349 1 7.028346681009938 1.7980459969491256 12.424398605066056 0 0 0
1282 1 10.715533038253653 12.302151817714192 23.07833566485495 0 0 0
398 1 5.312395450564161 1.8366015480788693 14.279021746103274 0 0 0
399 1 5.073836360067064 0.07940317934060759 15.85023496330149 0 0 0
670 1 23.082252722854534 8.906411194238155 21.19798011869288 0 0 0
404 1 7.075560873359344 1.711464376550893 15.889521210033937 0 0 0
427 1 5.253229364001171 3.4821901065260925 16.054021066899843 0 0 0
429 1 7.201085267659007 3.359795110026345 14.162518372128291 0 0 0
684 1 19.508976484845967 10.536071723184122 23.18119792329665 0 0 0
1279 1 9.002690200099584 12.207953782207982 21.318271739329923 0 0 0
362 1 8.945426105209899 3.66642668577033 12.449652005222648 0 0 0
402 1 8.851555863630578 1.7600549032917707 14.179491144129615 0 0 0
403 1 8.858614210667008 0.013095415843346392 15.935952216526257 0 0 0
405 1 10.633589081931433 -0.025245864700095322 14.082486944225758 0 0 0
408 1 10.747509852558037 1.6584259024653272 16.012820350434513 0 0 0
431 1 8.968631643906004 3.298983295282924 16.15907529361223 0 0 0
433 1 10.587615835907814 3.429656527482899 14.14849814497238 0 0 0
683 1 17.78011775667978 10.841354238136706 21.267084248895042 0 0 0
668 1 17.647628225104732 8.754341457268891 22.998174365809568 0 0 0
353 1 14.13624376078886 1.7344400010531824 12.41495125015977 0 0 0
1280 1 7.015581395106948 12.307756501264691 23.05802557756366 0 0 0
366 1 15.973655257257196 3.5256411341022216 12.40574982003497 0 0 0
406 1 12.287583394268546 1.7080540002526436 14.048739473217353 0 0 0
666 1 19.4665452469222 8.716445699864567 21.316491162058593 0 0 0
682 1 15.98477211678427 10.676212571348572 23.110629356592376 0 0 0
410 1 15.9118892653455 1.8017548865372426 14.148439262132785 0 0 0
411 1 15.779387738189673 -0.03389706590400358 16.001921535122836 0 0 0
412 1 14.015680036517592 1.6553716802415697 15.946006528550342 0 0 0
435 1 12.431090586108098 3.454511038383571 15.866719783314517 0 0 0
437 1 14.157226739524836 3.450720939649631 14.214124597039612 0 0 0
439 1 15.879771451780117 3.5177642848495165 15.917490060114465 0 0 0
681 1 14.215136342329123 10.55290500431541 21.30230115421878 0 0 0
355 1 17.75299918081684 1.632391561232234 12.429801432275331 0 0 0
368 1 19.5930309565635 3.450003812923729 12.41261313434209 0 0 0
413 1 17.694361423873104 -0.04496314201531056 14.338560802824308 0 0 0
414 1 19.574107292109055 1.6913880732438673 14.182054965494803 0 0 0
415 1 19.506991474788148 -0.056198466059645395 16.033933686564797 0 0 0
416 1 17.695000160666723 1.6707449381025277 16.04791833914188 0 0 0
441 1 17.706342871021803 3.4687340749876294 14.259137011619043 0 0 0
443 1 19.58636156735966 3.364106212809814 15.96019901318029 0 0 0
680 1 12.334773968854304 10.557570737840893 23.027258334944957 0 0 0
357 1 21.27033742064134 1.6678493053273764 12.563481217915774 0 0 0
370 1 23.136705884323828 3.4235078815230153 12.496777400993214 0 0 0
664 1 14.218308412194828 8.810023889710218 23.08700338568628 0 0 0
418 1 23.162648662302992 1.5725421200123295 14.247124369389734 0 0 0
662 1 15.974235058479103 8.880177684640234 21.222740709847365 0 0 0
420 1 21.316491244606553 1.753318841407174 16.16274817050095 0 0 0
445 1 21.33630053646551 3.421449590705186 14.223857288608718 0 0 0
447 1 23.165694394420548 3.5548198740790844 15.98020879219225 0 0 0
359 1 24.869100919287256 5.267059955762448 12.450591062022879 -1 0 0
361 1 3.5647522755147483 5.104971178111535 12.431005530856963 0 0 0
372 1 1.7049338704408181 7.085540478369158 12.511820511032163 0 0 0
422 1 1.7174837450918452 5.276766257329004 14.238300880005593 0 0 0
424 1 -0.02764121939198095 5.307717977133011 16.006181161397087 0 0 0
428 1 3.481699341887516 5.109471739818315 16.02636258248836 0 0 0
449 1 -0.037237061758042776 6.919643097427456 14.172121252994371 0 0 0
451 1 1.6386597780588488 7.0329311392647424 16.036096787253296 0 0 0
453 1 3.506157968770655 6.858284856188428 14.211460824966164 0 0 0
1275 1 1.6971693991419468 12.3180344051857 21.32844097983738 0 0 0
1190 1 21.228286280691094 12.387432670309863 19.599733985895675 0 0 0
426 1 5.417490740866735 5.147239468031292 14.194522313695314 0 0 0
432 1 7.00929496310224 5.13933408760493 16.017540456141095 0 0 0
455 1 5.337454935764318 7.0279666142648445 16.0938216241427 0 0 0
457 1 7.021363445960418 7.0281145504356255 14.286465833320243 0 0 0
365 1 10.614300934702444 5.317729101903195 12.49565491768135 0 0 0
376 1 8.728054761534498 6.925382308666718 12.443980403880584 0 0 0
430 1 8.788833069501536 5.1806946903060425 14.327771699642936 0 0 0
436 1 10.644600982295618 5.1451842306802105 16.016632899856805 0 0 0
459 1 8.807404585405333 7.0360190469806945 16.008832634754363 0 0 0
461 1 10.590963529206357 6.924920268012296 14.352732520350113 0 0 0
1189 1 22.99816021547466 12.388153545590628 17.763414547813724 0 0 0
1187 1 19.447502035351086 12.339209020669307 17.740645205899085 0 0 0
1185 1 16.02051422245805 12.365045696885655 17.740133269786735 0 0 0
434 1 12.415282849290618 5.148884473718809 14.018510302065206 0 0 0
438 1 15.933441864885246 5.279191171692288 14.219016386482306 0 0 0
440 1 14.173405294780625 5.334088918380527 15.983607053637208 0 0 0
463 1 12.46266996530422 7.0607882411997265 15.913726324407598 0 0 0
465 1 14.134755937919348 6.961285833673858 14.111064917318446 0 0 0
467 1 15.963287038687831 6.946277427292539 16.0114157665455 0 0 0
1183 1 12.429867518018764 12.32585012021285 17.722906415632643 0 0 0
382 1 19.466648906862815 6.963682905363744 12.434757761347534 0 0 0
442 1 19.48710095664795 5.191721099659982 14.265789634178317 0 0 0
444 1 17.790469348450443 5.233117172945282 15.995704517975476 0 0 0
469 1 17.766201573747576 6.982131984191919 14.156973823754997 0 0 0
471 1 19.45797597754148 7.085423031340765 16.05979851846703 0 0 0
371 1 21.31453673240323 5.161637642472246 12.459861231739833 0 0 0
1182 1 6.982466050351913 12.328935295696109 19.409157433965426 0 0 0
446 1 22.985885526768296 5.316550832515558 14.067931319206734 0 0 0
448 1 21.295350180160263 5.20376822238721 16.008873506912245 0 0 0
473 1 21.32919100983202 6.981800929021681 14.290155674520536 0 0 0