LAMMPS data file via write_data, version 29 Oct 2020, timestep = 150000

2016 atoms
1 atom types

0.09759539913858006 21.166404600861306 xlo xhi
0.09759539913858006 21.166404600861306 ylo yhi
0.22772259798928474 49.38827740200824 zlo zhi

Masses

1 58.933

Atoms # atomic

1360 1 2.3092270391330754 3.742516520276896 2.9313649439558658 -2 6 1
947 1 1.7303257462177932 3.4699940091303865 0.6098521028832748 1 1 1
1559 1 2.8146617050140343 0.6097014995606783 1.1083838950377807 0 2 1
1368 1 4.13902355378532 3.0689767770686527 1.38483704461375 3 0 1
1902 1 4.050042257053825 1.6394795547039176 3.3760787132314416 -1 3 1
44 1 20.770029498730842 1.8902880653176592 1.3869774897865272 0 0 0
640 1 20.935545379057793 19.10842246404599 11.105440896572361 -1 -1 0
775 1 5.9201246614288685 1.7466524781045534 2.3109823106440004 0 1 0
1476 1 4.556369581127196 3.7307020994467748 3.12265216849558 0 0 1
1208 1 6.574382791687466 3.657540375198028 1.8295147011298478 -1 -1 1
1786 1 8.2879745344154 1.2965887899917192 2.989468416492302 1 2 1
242 1 15.288568957912831 14.82532817421037 1.6389612943186833 -1 0 0
185 1 6.7985903643897885 3.63482684740949 4.665829938341204 1 0 0
1858 1 8.731712053958342 3.3509248828767118 0.8804283150673344 0 -1 1
356 1 12.932455502612124 3.802922336529982 2.8994690067770503 0 0 0
577 1 11.912920955499118 2.222088866883325 4.049725912965165 -1 0 0
1209 1 11.929715567015045 21.038848618810196 3.405886381376832 -1 1 1
144 1 10.615180770665402 1.3212118176833778 0.23070703366239861 0 1 0
597 1 10.032665425142232 2.095830639037448 2.441274268908313 1 0 0
420 1 16.265284738121625 2.006507035710801 1.8153491787340545 0 1 0
1236 1 14.233732878908974 1.7065936372879211 3.19056514195974 -3 1 1
1831 1 15.398222509695122 3.8789949087225355 3.4341585662812646 -2 2 1
8 1 15.74521464135644 21.10209389658037 3.110002011386983 -1 0 0
1073 1 16.93973804286312 18.129203971796905 11.926617246894438 2 2 0
1726 1 14.248698587042018 3.1532483897270223 1.1479485827930995 1 3 1
252 1 0.22325733477741613 3.7418876929125253 3.968136104884358 1 1 0
463 1 20.83823444436378 21.09621561701629 4.29394863674702 0 -1 0
370 1 19.517574332758535 1.899140509062265 3.356613491940666 -1 0 0
243 1 18.154094994596218 0.45907501846465826 1.751814833909105 0 1 0
267 1 1.3792177031975992 1.9971101360637438 2.644602689306178 0 0 0
1854 1 18.43966172527489 3.9192828192147267 3.639096224361693 -1 1 1
633 1 8.190900391559461 19.898666777280685 11.874171866936498 0 0 0
1478 1 1.9091532319447793 7.475754602081428 1.4980103234750684 -1 2 1
1846 1 3.712454445294648 5.888968781865997 2.1467064297557363 -2 2 1
1753 1 0.9902115369581536 5.8519923809669665 4.2562975287696965 -2 -1 1
106 1 2.5841471846373234 7.500175407071181 3.74425846922216 0 1 0
302 1 4.815360633521751 7.607352700594238 2.942679299859746 1 0 0
435 1 20.596180031863753 7.8285423285961855 2.9590892217119285 -1 0 0
1825 1 10.037931879752847 11.84782038896804 0.8382804275380951 2 2 1
303 1 1.0505663405035488 5.5482490936058735 2.297858336024796 1 0 0
1518 1 18.667352586858275 17.33877455539939 0.954390691563896 -1 4 1
111 1 5.925880611992595 5.813623837100954 1.5942362275108422 0 1 0
1952 1 5.552337663868434 5.83649546687633 3.871644625231521 3 1 1
114 1 7.121047237241295 7.442861417230434 2.896777466281686 1 1 0
229 1 8.559111082932796 4.318300714018073 2.9742372471029794 0 0 0
844 1 18.353239572816047 2.553212591775646 1.3087837134303122 -2 1 0
1050 1 8.411391083550555 5.956960691075195 1.330991808589987 2 2 1
173 1 9.834744173200729 15.505306746587163 1.378648385415957 0 0 0
274 1 10.463141824632961 6.160426062549092 1.9764979722052292 1 1 0
155 1 10.561770006757666 4.4963927032972135 3.2255656268013166 -1 -1 0
1337 1 12.350871069825685 7.540975781647442 1.7734951678718318 1 3 1
1895 1 10.970865430726713 8.43672171626581 3.508719085108865 3 0 0
1253 1 20.820323130229497 6.540286464392879 0.9907891601540759 -5 4 1
509 1 15.193255387478901 6.159377405362664 4.582603206402926 0 0 0
29 1 16.91429302630472 6.059926779821816 3.1038162473716766 -1 -1 0
28 1 16.26250617948629 6.326210831458404 1.010175485604242 -1 0 0
475 1 12.62186172662891 5.675820906581348 3.4537147895618796 0 0 0
99 1 14.65294490072947 6.045604663610813 2.503240612607035 -1 0 0
281 1 17.18210137470799 8.918028236523748 1.5675945074471593 0 0 0
381 1 13.26237436946454 7.919612311199905 4.3961060208562905 0 0 0
1705 1 16.213512189328906 19.929966556620215 11.002662227786063 -2 1 0
448 1 19.92642749094149 17.16055324263545 11.279041046942279 0 0 0
700 1 20.673365369576416 3.8366681481881497 1.7392484642165167 -1 1 0
447 1 12.92242022705819 15.375541227308359 0.38273436814350714 0 -1 0
1999 1 18.62299032129403 6.491710328507282 1.3933506301460865 0 2 1
104 1 19.841142785720304 5.81521231429696 3.0596926882699944 0 0 0
1432 1 18.165162949401868 7.846798662345226 3.2171161643520083 -1 -2 1
904 1 4.285130822432997 7.597372841874249 0.5743462841891281 0 0 1
1426 1 2.768149645072468 10.870754436979267 1.2460081975173471 -4 4 1
1402 1 5.35692589888361 9.073579970701259 4.245908888797834 0 1 1
247 1 1.0435220182745653 9.611456293841908 1.8967723271382446 0 0 0
1715 1 1.3975246705394742 12.822955411602253 1.6123962380986636 2 1 1
162 1 3.3130928454497806 9.17149273727371 2.4924645629274678 1 0 0
178 1 4.29699769652244 11.558829264311768 2.8271302483251946 0 -1 0
1914 1 6.576582588012769 8.254102526752002 0.4857655050425131 3 3 1
564 1 8.063460134119412 9.984363341708388 1.1962317393674642 0 0 0
373 1 6.872313184873679 10.63596911034661 3.476858890897919 0 0 0
150 1 6.215704342317445 11.178811450191578 0.9333394828361719 0 0 0
1473 1 5.945955973330108 13.15955105085109 2.9751505384564836 1 0 1
1855 1 5.410770575972211 9.49840249263682 2.0188387952819076 0 2 1
696 1 20.57409617743516 6.004423674917767 12.17103000439956 0 1 0
1732 1 10.631711801714824 9.614888978583995 0.8268177232460326 0 2 1
835 1 9.791024629326516 11.31533369684609 3.1480167985578302 0 -1 0
687 1 11.621153098454728 10.527722789916197 4.319458297181792 0 0 0
729 1 11.978309630364762 11.323077539320241 1.9846302254445265 0 -1 0
426 1 12.086899571283318 12.9781283385796 3.2058850076196506 0 0 0
166 1 8.477508598080277 9.069619361530377 3.5965927521480823 0 0 0
1207 1 13.184214460055182 9.486850015129477 2.797141502116353 -1 2 1
1625 1 15.330788482148808 10.115624929408767 2.795043008879653 1 4 1
352 1 16.3129327165341 11.905414448837135 2.53417051258973 -1 0 0
1868 1 13.94945459829853 12.682421897938317 1.4382701569785992 2 -1 1
570 1 18.10427519225663 11.298836029151332 1.4432564872091036 -1 1 0
840 1 14.141843254899761 9.712567744510483 4.987102009508359 0 0 0
360 1 14.746438546876249 7.966349572741163 1.532515200642314 0 0 0
428 1 19.037106717589644 8.65907681645348 0.6345485970093018 -1 1 0
223 1 20.082986132614593 10.336651655974459 1.6933466010017095 -1 0 0
301 1 17.37075912966095 10.112351661001732 3.2989711334401837 -1 0 0
771 1 0.18233767452671176 11.970868030028722 3.3820264511172047 1 0 0
1923 1 18.91208347203099 12.430181333694028 3.1706025363584835 1 1 1
523 1 2.1519370191263425 15.319857799896445 2.265914511971105 0 0 0
328 1 3.230615406787795 16.701285390315793 4.388877703913776 1 -1 0
1456 1 3.059672993213658 13.259228869725215 3.2057928362891257 1 -2 0
436 1 3.960626699331682 12.63333242899902 1.0008889409272537 0 0 0
401 1 0.2777357335830679 14.165866582235271 3.0607785451976364 0 -1 0
329 1 1.0095605107035415 16.8066108608097 3.9069915935909396 0 0 0
1443 1 6.005740347325149 13.778339330752358 0.3160641358620131 0 2 1
198 1 7.884086879734472 12.03196501394888 2.165229317625159 1 0 0
1526 1 4.286969634695219 14.962926818646991 2.0443250199418603 1 2 1
268 1 5.895515172527268 15.935535622691596 3.744959187850312 0 0 0
1205 1 5.947347452165703 16.706628771310996 1.0333787906443797 1 1 1
675 1 7.750888157284167 14.564184530860475 2.3466727595423857 0 0 0
1491 1 21.140249393147467 14.918233810924715 1.0723939980032138 -2 2 1
1101 1 10.054622332613507 12.831163841540977 4.842104725550965 1 2 1
654 1 7.797438593746892 14.966945275104708 0.3801772175663669 0 0 0
1239 1 11.50262615922426 17.075710770347573 1.3213132175504776 -2 2 1
175 1 11.468940015501348 13.731542180888 1.0806296743771848 -1 0 0
3 1 12.591656529857655 16.466716021976602 3.2575953230817913 -1 -1 0
1130 1 11.018123486130634 14.840783854415232 3.1946158472457746 -5 -1 1
583 1 9.62067234563919 13.31010669018156 2.7080798742238037 0 -1 0
93 1 12.891790200933912 5.242364430888159 1.3144781674144346 0 0 0
1374 1 14.380550291611407 16.784536492364143 1.5708110771444224 1 2 1
286 1 13.610340132121914 14.724603224955255 2.9482835602161725 0 1 0
115 1 17.675134766136242 13.493535775941274 1.4454720206796163 0 0 0
456 1 15.647735495659658 14.091064001188034 3.4011293993442986 0 -1 0
476 1 4.765087621186521 2.448635050564626 12.05997275951807 0 0 0
57 1 16.598764881389958 4.263547995001343 1.7589727639537358 0 0 0
63 1 20.093391842805975 12.762754371227864 1.1637464546207181 0 0 0
1238 1 20.559291947345134 16.92622342396333 2.1757568090718715 0 -1 1
308 1 17.36476596149064 16.38501709832332 2.6786802864426815 0 0 0
823 1 18.95169203941285 15.062578730277147 2.0900772119219115 0 1 0
80 1 19.96093962770158 20.97943075922932 0.43403814875078095 -1 0 0
516 1 3.091818663365335 19.37035829320419 1.2668361241924058 0 -1 0
719 1 2.5371976192900285 18.32970382718703 3.1529366295675567 0 0 0
105 1 1.2624958818629564 16.890361309758546 0.6563335593384003 0 0 0
58 1 4.6314396661549635 20.685391279922225 2.8493913704930094 1 -1 0
1709 1 2.4706017713352084 20.360327097076414 3.702201170779672 -5 5 1
219 1 0.5474472058487103 18.9364715918172 2.2557355509690598 1 0 0
1860 1 5.446646045254588 19.70708051883448 0.3536850580784366 -2 1 1
145 1 4.36109937463138 0.2910344884347502 5.1215288500307246 -1 0 0
1655 1 12.325768348919985 1.5387589549648624 1.881177967924906 -2 -1 1
227 1 8.747693322635154 17.94535085807095 0.3548319446717373 0 0 0
109 1 3.4290709608139407 16.902954078369525 1.7620664171812324 0 0 0
334 1 5.148001592287011 18.23459589038477 2.6555820557497625 1 -1 0
353 1 7.077988385012537 18.586107415416656 1.774865429824841 0 -1 0
457 1 6.847373974387577 20.48729696013241 3.354910379350417 0 0 0
53 1 7.497938863905667 20.5494280637989 0.99248097161607 0 -1 0
1519 1 7.833158764138622 16.729362747021053 2.7609646554412266 -1 -1 1
845 1 9.496011135858785 20.611555095375586 2.5034283664088073 0 0 0
1759 1 14.361186258922826 10.623809502702963 0.9176029336787435 -3 1 1
1558 1 10.192902351189218 18.67954089641149 2.1313847235398304 -2 -2 1
284 1 11.391072098715846 20.577471728823888 1.0842974666572494 0 0 0
1754 1 12.64037136462846 18.87481539282445 3.3245390590595263 1 -1 1
1169 1 16.607127785280667 17.98660986599622 0.39624324332973665 0 -2 0
285 1 15.174651159945798 16.667963318783375 3.611835018900358 1 0 0
429 1 14.78147083282915 18.832595500453703 2.5392064424881187 0 0 0
416 1 13.887058766911997 20.812895839873228 4.511293276531144 0 0 0
621 1 16.55375102884422 19.880600079516086 1.4454093481963266 0 -1 0
1734 1 17.22609890351882 18.985718300136273 3.202618804752461 -3 3 1
1263 1 13.582455448585327 20.781219310610055 1.8289491944906178 0 -2 1
1755 1 12.955487329096423 18.62749176406941 0.6696711044903572 -2 0 1
1959 1 18.7012615464054 17.39462913540834 3.7119843000616837 -1 2 1
995 1 0.45234533904920826 21.066212179498187 2.341423770469964 1 0 1
164 1 18.538349596647492 20.890697760585052 3.836949656135196 -1 0 0
718 1 19.23374806795706 19.17521893017817 2.0477407235916285 -1 0 0
1488 1 20.26992967752445 19.008477018107254 4.377034153353135 -1 2 1
1195 1 14.720542558673623 19.509032107839648 0.352186102816418 -3 -2 1
2015 1 1.8989279926233078 4.15148278605914 5.78668229236314 1 -2 1
1551 1 2.2998020131348462 2.162680179946943 4.8532178880237815 1 2 1
327 1 4.105095616349215 3.151333277964566 5.718232839767181 1 0 0
193 1 2.4282697504952315 20.93509812842435 7.938599567253556 0 0 0
1634 1 20.748332218141144 2.316852642148734 5.676168706028221 1 3 1
483 1 3.194111980239987 5.659081825145167 7.154378895614159 0 0 0
1958 1 1.971344009696586 1.8507531321181394 7.048492342938619 1 3 0
770 1 0.5650426190224446 19.729268666949302 8.58631140907168 0 0 0
1177 1 10.168035747317397 0.7721463041464222 4.483453694143313 0 -1 1
143 1 6.144234858808021 1.6176010079359526 4.66961082969026 1 1 0
1056 1 5.894319636131434 20.278552814863385 6.002680990774184 0 -3 1
460 1 7.9732500170319325 1.46303994247277 6.012464493151442 0 0 0
358 1 6.04586426529147 2.3272933894713668 7.049641888636646 1 0 0
1900 1 13.512885976997305 1.917494337591493 5.852236850326919 -3 1 1
714 1 9.825407856015524 3.7960645030444926 7.617646067010337 1 1 0
805 1 11.266889268811974 4.4107119186123205 5.052711494818614 0 0 0
634 1 10.058331962763447 20.4449239563896 6.6328328641310605 0 0 0
432 1 7.600668834657396 3.8715553066495723 6.80850019914988 0 1 0
1077 1 8.378771344924344 20.51307565360838 5.0469703197656575 1 1 1
174 1 14.531787501765056 20.70483863952558 6.319550189076404 0 -1 0
1045 1 15.506122667644133 2.0411624535375745 5.3090212429980275 1 2 1
817 1 14.638526787617575 1.4704753761721236 7.7636892735942675 0 1 0
587 1 15.940879717802481 0.4508705524808505 8.933848054199569 -1 0 0
168 1 16.683465772972777 4.228340349339001 5.293619465843125 0 0 0
619 1 16.653400404497027 2.6452283095096556 9.953083079318809 0 0 0
404 1 10.912787110302798 2.2219871327175102 6.223192779018261 0 0 0
678 1 17.0668409890529 1.8310101609395715 3.6940003724125434 0 2 0
578 1 13.807478429483526 4.322614600220728 5.153804124995131 -1 -1 0
330 1 19.01820408640543 0.14256671990176914 6.117191113970653 0 0 0
2013 1 18.097048567019982 2.44913965325938 5.606977089331057 -3 0 1
471 1 17.012008847677155 2.5751093401162874 7.961240788877985 0 0 0
101 1 17.824462519723436 4.402591985459936 6.973601969027403 -1 1 0
37 1 16.724688487691253 21.161335097554474 5.429792279246379 0 -1 0
1120 1 19.545113407811673 19.96029639503113 7.791073398612501 0 0 1
343 1 3.523745466679271 5.307690719844666 4.687354651893262 0 0 0
147 1 1.2577589623287 9.277173787035203 4.335373795497182 -1 0 0
129 1 0.6743070151827155 6.241400259585581 6.70955974623354 -1 1 0
670 1 3.3765805544452503 7.871091255192232 7.562397410481466 1 1 0
679 1 2.2564311062934346 7.119996821343527 5.756334222510215 0 0 0
94 1 1.3791080385827608 7.007021372976356 8.89830680123125 1 0 0
1877 1 5.433447945090169 4.7556656020138774 5.863327994480404 4 3 1
1698 1 7.349529008045114 8.854726437526118 5.400672471857542 2 1 1
335 1 5.486014253900815 6.453463318526844 7.42289016603838 0 0 0
1029 1 6.977183098671466 6.612505374996402 5.566965109819967 2 1 1
1501 1 7.922840381327069 5.403219666468361 8.104324664158334 -3 0 1
430 1 7.107737706799079 7.952495777956923 7.694965219086254 0 1 0
158 1 4.605158601852085 7.370062804461412 5.235343834187512 1 0 0
987 1 5.799899923344835 4.147518107985476 8.499942253011538 0 1 0
96 1 9.373760440129262 2.914002547132114 4.7884229338345685 0 0 0
1411 1 8.911516213887566 6.9465030712264 6.420251668662928 -2 2 1
1659 1 9.102914283930463 6.9145810661102 3.906946478467362 -1 0 0
569 1 9.004468261179797 5.170571797248604 5.1988399500529034 0 0 0
1636 1 11.045056824087972 6.699313774862291 4.91065939912338 -2 2 1
750 1 14.634778398739188 3.9346755718967366 7.087086560444714 0 0 0
1179 1 13.815736415623507 5.523721906510741 8.54335419142034 -1 1 0
469 1 13.067646787413043 6.129344503057421 5.860954891332345 -1 0 0
2010 1 15.767491523440222 7.97806670207775 3.67544035276739 -3 4 1
257 1 15.761524035601449 5.835204740082906 6.821012290854417 0 0 0
833 1 15.076398930960545 7.816533173092879 5.822159663518217 0 1 0
1943 1 12.470735531097946 4.303239471306575 6.959289395631758 1 0 1
1467 1 20.02720090340573 7.120627659130648 5.307823839860826 -5 3 1
204 1 21.081523864450077 3.5401103981958895 9.457390757969183 0 0 0
1242 1 18.576340072364317 5.794069682043648 4.859890306065268 1 1 1
1339 1 17.39964112062512 6.9797357102120685 6.426665902003115 -3 1 1
486 1 19.795446603625145 4.267826745825632 5.945228406800037 -1 0 0
215 1 17.565630659245485 9.08948034843254 5.535676598884809 0 0 0
75 1 1.137302188301247 8.695155651763914 6.95628899381594 0 1 0
1588 1 3.2195933828222727 9.535987074436933 5.061721601741009 0 -1 1
359 1 2.2332854391231685 11.315957277872865 3.6860028972833323 1 0 0
723 1 4.278984184288573 10.860042364597309 6.610301837251606 0 -1 0
177 1 20.494539458800535 10.226874174454794 7.437156333979989 -1 0 0
413 1 0.9884134172308164 12.738649698708317 5.587612800189713 0 0 0
1040 1 1.3451403900454466 10.631832579108229 6.430546592821528 -2 0 1
488 1 7.644466904310793 13.17611002110575 4.5516959497130625 0 0 0
48 1 5.352083835339199 8.804796323380318 6.636926814541258 1 0 0
1506 1 8.758988625844127 10.823477983590172 4.850406616355827 -3 -3 1
103 1 5.3539833328932644 12.42802081246605 5.032149451132921 0 0 0
593 1 6.824871151469549 13.48344630145455 7.618732992526108 0 0 0
707 1 6.663127939214006 10.964115855969519 5.590202977805323 0 1 0
479 1 4.481945312274967 13.153104426993236 7.368330993532378 0 0 0
656 1 10.107973329808816 8.594996466093642 5.553970599380363 0 1 0
637 1 8.812072528017131 9.642324372933134 7.12979137527171 0 0 0
336 1 12.19997395687801 13.02122538191795 5.6416351269672145 0 0 0
1994 1 8.299910845494757 12.171590573303273 6.832925552514402 -1 0 1
705 1 10.947290623346191 11.114166039845294 6.319939327409993 -1 0 0
720 1 12.526663847884201 9.205900603658822 6.405955452876055 0 1 0
632 1 14.277244323351676 9.228724484447978 7.744839592494362 0 0 0
576 1 16.36591464275591 9.383082070577869 7.3527566991489435 0 1 0
289 1 15.805084806898725 10.76620606968153 5.3685483094540505 -2 0 0
853 1 15.789302595103559 7.2970367711047075 8.618766764339224 0 0 0
1918 1 12.412133959330413 7.246332345917923 7.382850608835891 1 0 1
110 1 19.502663592891228 9.350443638397895 3.965703871096976 0 1 0
1311 1 19.266864524523143 5.972375207361379 7.585823145578087 -2 1 1
661 1 19.549260221807984 8.652533314829096 6.703565125097194 -1 0 0
419 1 20.532308030186847 10.82275109960167 5.274724074917585 0 0 0
565 1 18.27928946259846 11.209350854157211 5.010151206954762 -1 1 0
382 1 18.256308355838534 10.468828203867492 7.080403775236272 1 1 0
1441 1 20.354403209638363 12.616273193607721 7.34642307945025 -2 2 1
186 1 18.09072421299857 8.52497737173464 8.498347776366538 0 0 0
295 1 3.225089166139543 12.400492461012012 5.554280635690223 0 0 0
1746 1 1.9770301117688027 14.701812829493441 4.928828547324339 2 2 1
468 1 0.1059820039817052 16.179049177904325 7.877272530028664 1 0 0
1945 1 5.118694502599206 16.895045295412785 5.776460896131905 0 -1 1
1750 1 1.2918854919207188 14.048497389828462 7.602984964721888 2 5 1
858 1 4.1643853384778575 14.582859926567064 4.438749048791698 1 1 0
355 1 5.966498855303261 14.675705103233492 5.982092385922062 1 1 0
1489 1 3.3018028458552373 14.97547076957525 6.586105157245241 -1 1 1
92 1 7.68081240659203 16.301414098008188 5.2252175016656 1 0 0
1097 1 8.50684386961849 14.079142547437812 6.2401244544255015 1 -3 1
709 1 5.214353336510663 15.387714025801385 8.412072953609284 0 1 0
557 1 7.277127526956256 16.10821191913979 7.598239112401057 0 0 0
163 1 9.169293425117491 14.890845853647102 4.147358411585182 0 -1 0
550 1 10.609270186326732 13.154829988595273 7.367123341073363 0 0 0
997 1 10.692487579490454 15.112910467980228 5.858001504932511 -1 0 0
1389 1 12.838532326947604 12.999481703357572 7.790058479726436 4 3 1
236 1 12.091856887383793 15.193730688764953 7.388991933610504 0 0 0
394 1 11.53661995278325 17.15393065987425 5.428900865033992 0 0 0
990 1 13.079259477773979 15.046577362148694 4.929481497008508 -1 1 0
24 1 16.621791583858663 12.874402196675733 5.06375493031851 0 -1 0
213 1 15.239104137481322 15.245761577815717 5.30061036070284 0 -1 0
629 1 13.44856013652657 11.406832958139917 6.289667755022677 -1 0 0
843 1 14.130606738694016 11.987783123182552 4.2459672778819355 0 0 0
493 1 14.413808415751115 13.456016676493462 6.316924664440817 -1 0 0
52 1 16.326232890536556 14.663184658163894 6.835248268720074 -1 0 0
1354 1 14.916135547085046 13.867953202187513 8.748219269490708 0 -3 1
473 1 16.111306873621945 12.090586609239699 7.432915488753655 -1 -1 0
7 1 17.56400004202195 15.012846202188289 4.526983136230594 -1 -1 0
517 1 18.34114166791705 13.795015933392106 6.535567214324095 -1 0 0
67 1 20.83147079103773 14.729751148824583 6.161261149490268 0 1 0
871 1 18.145691433817852 16.158485113003916 6.390971682337432 0 -1 0
379 1 19.7626112848322 12.68757795835165 5.193885422470544 0 0 0
1454 1 19.90135911773841 14.52503058951709 8.185017519489271 -2 0 0
321 1 19.56340267088427 15.310900420440614 4.10730379306917 0 -1 0
1113 1 18.752487430132618 16.52565674438545 8.695383634327053 -5 2 1
250 1 4.581075620541111 0.8789447421064336 7.113730526850772 0 1 0
1309 1 3.908671047022723 18.762301272572714 5.25039293218079 2 -3 1
1269 1 4.345041780960353 19.90086697122154 7.681936617231375 3 -2 1
210 1 1.4101618528108024 19.061419400318517 5.158286122365939 0 0 0
19 1 2.3931417587695663 21.1097442987863 5.712912662310526 1 -1 0
70 1 19.85528692909308 18.252001921211907 9.177337626617305 -1 -1 0
1626 1 1.6138633566603653 16.480315599344735 6.361119276807869 1 -1 1
777 1 2.2692592006590027 18.50863617653117 6.942076835903642 0 0 0
33 1 7.75179670007062 20.919696674837674 7.747157489552557 0 0 0
498 1 6.332906901618172 18.26649075452678 4.756764879777068 0 0 0
472 1 6.731890283869047 18.54873017679317 7.473813569043964 0 0 0
69 1 5.784066971964222 21.02604714395176 8.649111700143246 0 -1 0
664 1 9.329395706509079 17.669219382403277 5.4307444438961765 1 0 0
826 1 8.531446774919331 18.96156637518415 6.94089322854106 -1 -1 0
128 1 10.58215203684105 19.328205310801003 4.667721311015935 -1 0 0
543 1 8.631779478680988 18.61032074311117 3.6896860177861703 0 0 0
220 1 13.719594396350356 17.485783288291522 5.278526400534818 -1 -1 0
1018 1 10.180825029078466 1.116729351231257 8.177249980871842 -1 4 1
481 1 10.044091664729418 16.92506281241738 3.582045340638104 -1 0 0
1871 1 12.96414798589277 17.297146824585365 7.851088425808121 2 1 1
763 1 10.772423506807844 18.17470517676188 7.520800899070046 1 -1 0
61 1 12.60883219261857 19.25701071131224 5.959345629080483 1 0 0
271 1 15.480239768052236 19.1830474646298 4.532182425979182 0 0 0
234 1 15.139762101762733 18.290324387350758 6.773269496161825 0 -1 0
153 1 12.09319549719234 0.6222987073929359 7.137200967894356 0 0 0
214 1 16.42262556095209 16.649540016760323 7.891109219834804 0 0 0
1916 1 13.859763726689712 19.766434383966413 7.8148814603415575 -1 -2 0
1658 1 14.452928986961766 15.844195541176662 7.527231870599554 -1 0 0
722 1 0.23543261367559665 0.21186170550816974 6.680776597833504 0 0 0
1788 1 17.275947527557268 20.388537649570203 7.4917158159586394 2 -1 1
810 1 18.239818628506864 19.282171300814774 5.113529283743978 0 0 0
108 1 16.760906323329394 17.117882824350477 5.298847886922921 -1 0 0
189 1 20.44451043336181 16.81748541376623 5.618137411925068 -1 0 0
1940 1 20.85675984379025 18.763233204645864 6.5702025666897645 -2 4 0
406 1 18.211375441404037 18.333109423900513 7.091603441552642 0 0 0
160 1 0.3599861310270589 1.3821218793416339 8.688880739869008 0 0 0
415 1 0.2703983127792382 1.8537536972855106 11.262134086199339 1 1 0
933 1 2.516836446992502 2.3195082920110632 10.040093230100256 1 0 0
297 1 1.1661050998712812 20.957884213139785 10.305684102078482 0 -1 0
292 1 3.7658302444739182 3.424063340811253 7.981573775610393 0 0 0
1395 1 3.6350144487805647 4.403716900300553 10.854293769593394 -4 4 1
27 1 3.1573717914943478 0.6113897038713597 11.90321956858058 0 0 0
596 1 7.046685258402085 2.435056062055541 10.577864346084882 0 0 0
1487 1 5.070762314646388 2.245763447463563 9.49873995564595 1 1 0
1000 1 14.23474643290273 19.0436137240025 11.905599836794567 0 0 0
196 1 8.678470706142187 3.4413302526458724 11.745539626252864 0 0 0
622 1 12.338203933323744 5.964499532020562 11.690785781089138 1 -1 0
1882 1 6.266998674566867 4.397010373046872 10.871749856852736 0 -1 1
444 1 8.133710559912844 2.1509047968831423 8.066165993713133 1 0 0
169 1 9.82080944796567 2.1200657789127595 10.060206503812704 0 0 0
205 1 12.219501613674009 2.419289065430092 8.69579425463719 0 0 0
1041 1 10.996644746016743 3.2412388445437843 11.694808200098306 -1 3 1
230 1 10.00220112374656 21.07601083773002 11.73229739537732 1 0 0
562 1 10.135984086600814 5.327862730950019 12.489449383557826 1 0 0
409 1 13.568367407682807 0.5186014107851312 9.250616711923923 -1 1 0
528 1 13.037308773188514 4.246628141505101 10.289413638431803 0 0 0
1910 1 14.503821771243036 2.7797790842102477 9.58672622942982 -1 0 1
1459 1 12.82588568892698 2.1379606585072257 11.058446577615305 0 -2 0
513 1 14.986381429696031 1.0556836208510187 11.063066637706916 1 0 0
1423 1 17.737325357334317 0.3833881200357255 10.939230018622235 0 5 1
579 1 19.57727713581103 2.663661903050234 7.672968965031266 -1 0 0
1889 1 20.06496232692221 20.762252470967077 10.171094153843276 -2 -2 1
663 1 18.30870501975969 1.0525142416755575 8.430731485015972 -1 1 0
588 1 18.899932937318734 19.026245474375937 11.664676798621231 -1 -1 0
172 1 17.976108137494258 3.0658059055815614 12.03412784407886 -1 0 0
1241 1 17.072358192621696 15.800008208397982 0.34033602854804795 -4 -2 1
544 1 1.495489712935444 6.041086126745633 10.82123976924024 0 0 0
237 1 1.2418321123690508 3.876592107898353 11.395072671529036 1 1 0
1046 1 19.296621203343506 2.031950302132569 10.364317254523197 0 -1 0
127 1 1.877144673165601 4.776213147267064 8.92642871475015 0 1 0
39 1 3.812145247605299 7.668845093655187 9.610301180503818 1 0 0
573 1 4.907686625668537 6.719769915429023 11.523860720947079 0 1 0
380 1 20.603676103211747 5.694130255963528 9.66510535038317 -1 1 0
504 1 12.38969778183702 17.961170430106772 10.438547350508262 0 0 0
412 1 6.410628593505864 6.569770766045716 9.402496644348842 -1 0 0
387 1 4.188702675483688 5.779898655708433 9.012447839762098 0 1 0
953 1 6.679057222892989 7.966931025761135 11.472488928473613 1 0 0
532 1 8.885339018379025 7.339224116836929 8.98254326904491 0 1 0
1159 1 5.341058022541351 9.01794577581507 9.031352157384799 -4 3 1
459 1 11.720809479660478 3.2597937314502414 0.8427856123290179 0 0 0
608 1 8.436507491947214 5.84049553900199 10.866512507768169 0 0 0
484 1 8.663338044923355 3.8380516327465206 9.491574575449434 0 1 0
197 1 10.594978910978941 4.670613668933082 9.943987264444711 -1 0 0
130 1 9.435510927615288 7.812136487458761 1.7931832857246384 0 1 0
832 1 11.885788466538127 6.227092199182773 9.336946861420358 0 0 0
376 1 10.779463994144786 5.838215814430242 7.140129468999467 0 0 0
1385 1 10.587400018721333 7.159554373985379 10.83938936371574 -1 1 0
773 1 14.44737549316346 6.394916581311844 10.696987509621364 -1 0 0
1065 1 14.694173404015572 3.669452956235168 11.695574253048118 -2 3 1
142 1 15.783165824320395 4.412007489687425 9.172453795720807 0 0 0
876 1 13.198769934664686 8.038763118082617 9.363176147466381 0 -1 0
514 1 16.515259427740027 4.9546151726344885 11.674975770618374 0 0 0
273 1 16.540682841602305 7.398992811752359 11.068843936995023 -1 1 0
221 1 14.519339302992023 8.773776278918405 11.526856122537279 0 1 0
741 1 13.663988286427536 19.325864253945547 9.829753635577134 0 -1 0
800 1 12.328413709258351 8.594145818807961 11.21250038952728 0 1 0
559 1 0.44544107016371187 3.7487643716742913 7.4049648726607415 1 1 0
395 1 17.716929442466586 6.023140872984863 9.13432377390649 -1 0 0
5 1 18.256732225491245 3.794770868488867 9.280278097055938 -1 0 0
649 1 19.9824077968386 3.8566274205610043 11.352150447264037 -1 0 0
496 1 20.320262685035114 8.094603931370749 8.727374467569577 0 1 0
1033 1 0.11949330944838475 14.15580800578198 12.222938318837794 4 0 0
1474 1 17.459202479461528 9.29489034872278 11.384857282357984 2 0 0
511 1 2.5809644837785877 9.76009348932976 10.541468301745933 1 -1 0
893 1 2.724057804795047 9.950598843411052 8.056415924565218 0 0 0
1565 1 0.48912658760490574 9.682148108352628 9.551045272236399 1 0 1
503 1 4.835240738030882 9.4092688661925 11.466056100197694 1 0 0
1790 1 20.82786277021387 8.06316585077468 11.432358997643632 -3 1 1
272 1 1.3421854678341265 11.776060724041088 11.065087623151747 0 1 0
1712 1 3.352936521927347 11.768033831765823 10.23101966037047 -3 2 0
808 1 6.4363379681097745 10.748349250195526 10.690809428031486 0 0 0
988 1 4.63302971975546 10.897463303905067 8.96633803331447 0 0 0
582 1 6.663776749053189 10.673157008903564 8.090227422384757 0 0 0
389 1 9.001172853237502 8.706210266676095 11.636036081371653 0 0 0
549 1 7.815932672129757 12.195611746909021 9.244424508926887 1 0 0
369 1 10.883023641828768 8.363243592733133 7.969138000079276 0 0 0
421 1 9.998305947286036 11.06027606852174 8.459961061504327 1 0 0
1672 1 8.007876417280947 1.110778606304758 12.022472425030244 1 4 1
589 1 10.301468492590123 9.380830037893276 9.88192178536208 0 0 0
822 1 7.920141459999016 9.158432302498207 9.718696714094447 -1 1 0
1511 1 9.02201659019068 10.991685047818537 11.03991434238816 1 2 0
9 1 11.407562079248143 11.561363894634805 10.084591128867652 0 -1 0
721 1 11.558337642282153 10.770304106618772 12.307905428242448 0 0 0
372 1 15.784607599017123 10.66219873354624 11.74643677067097 0 0 0
627 1 7.635757064776614 12.894556582663466 11.847668681274277 0 0 0
595 1 13.839263247069779 10.618226757316606 10.4744372964181 0 -1 0
396 1 12.392432209763125 10.537366436460697 8.361765253206142 -1 0 0
926 1 14.394165642406445 11.215055576691503 8.51301007652673 0 0 0
418 1 15.982553007282721 9.597046884084873 9.620717832265006 0 1 0
235 1 3.8872330299611115 19.549440768256254 11.48571100804806 1 -1 0
746 1 18.86192425049477 7.574387697603059 10.53472310337588 -1 0 0
287 1 18.188648441100202 10.426958531725814 9.449329134216136 0 0 0
736 1 19.886729561969254 9.987232928531936 11.207556736637727 0 -1 0
1975 1 16.072374576695204 12.137199578780814 9.794335326741173 -1 1 0
759 1 18.53053057621012 11.757049477342903 11.210092145282715 0 -1 0
443 1 18.538166610273038 5.52341525055574 11.247342215505784 -1 0 0
258 1 0.717890621326208 11.714331999762344 8.742717033407944 1 -1 0