LAMMPS data file via write_data, version 29 Oct 2020, timestep = 150000

2016 atoms
1 atom types

0.7679725374715733 20.496027462528772 xlo xhi
0.7679725374715733 20.496027462528772 ylo yhi
1.7919359207683918 47.82406407922964 zlo zhi

Masses

1 58.933

Atoms # atomic

8 1 2.8680860284125256 2.7888854393632174 3.6448475216543628 0 0 0
27 1 1.2434105918241893 4.335340472771722 3.5082500408588855 0 0 0
146 1 1.63839291909249 2.76575011820099 5.325809827975828 0 0 0
173 1 2.862710562463713 4.355807836583424 5.266097726840167 0 0 0
149 1 2.8503150375782162 1.033990165558885 5.441247831234147 0 0 0
3 1 1.7238433106235855 1.071001737100059 3.6346202495077473 0 0 0
150 1 4.239556427021655 2.5123862598911906 4.972554605365971 0 0 0
31 1 4.729088240022244 4.291254212319697 3.5878412377847715 0 0 0
132 1 4.7249101463044445 0.8823127691880237 3.3382291713617844 0 1 0
12 1 6.22282307095826 2.525576125407757 3.702293709985307 0 0 0
154 1 7.461550031953171 2.8721230304019354 5.3956677885371604 0 0 0
153 1 6.000222688182867 1.1045347856117833 5.2184292654439535 0 0 0
35 1 7.6864708298361935 4.312921171552021 3.872375691562082 0 0 0
177 1 5.657853714509887 4.210520396246531 5.511755570780208 0 0 0
102 1 3.2642666787811083 14.22984514585897 1.9199358685467167 0 0 0
114 1 15.814930063500436 14.324765755405533 2.1753596187760786 0 0 0
16 1 9.20905087529454 2.9082086340184468 3.6518531483906473 0 0 0
39 1 10.876363255448785 4.391352588181203 4.03320388085193 0 0 0
1784 1 10.673059523117926 1.2414072521812538 3.4309316180364466 3 4 1
181 1 9.380004002598817 4.190110384608966 5.8378288817664785 0 0 0
158 1 11.104042381293233 2.562463500971849 5.526574068108618 0 0 0
185 1 12.93288040585502 4.330517001196547 5.358349679959787 0 0 0
64 1 11.395463810082191 9.551133391491435 2.256483176073993 0 0 0
17 1 12.279673811516263 1.1551305753604462 2.0974736422114297 0 0 0
10 1 7.970781965039562 2.876746858601883 1.8573238471051896 0 0 0
157 1 9.504722768179349 1.311580696093392 5.441103878329324 0 0 0
161 1 12.592620518614424 0.8390836585849714 5.42396660874524 0 0 0
20 1 12.28706255213475 2.7710954998636868 3.684904035349841 0 0 0
22 1 16.055558688402122 2.5920669206171345 3.814813228308198 0 0 0
43 1 14.507318352996124 4.233880125591238 3.76849544345454 0 0 0
189 1 15.903278424308281 4.1838044345531715 5.553600095421816 0 0 0
162 1 14.46827668762759 2.438641644444201 5.360163358704627 0 0 0
19 1 14.061056061491323 1.0192927597257109 3.544358537096733 0 0 0
165 1 16.155402224782506 1.0403328319545075 5.192178584220105 0 0 0
108 1 6.174176149682552 17.39526169454409 2.1679837587656636 0 0 0
7 1 4.499125725513762 3.027263717572654 1.929895338136187 0 0 0
93 1 14.350875566490604 9.429763030058565 2.0176406472535517 0 0 0
53 1 2.859276098594221 7.560676107427485 1.8783765827752705 0 0 0
38 1 10.88829954812065 5.919568596301493 2.038910131124245 0 0 0
4 1 19.32304231353458 2.58278820365988 3.356879618493595 -1 0 0
47 1 17.647987820013995 4.300520228959645 3.5042402975620135 0 0 0
166 1 17.522770961168163 2.5301252925361015 5.384229426994544 0 0 0
169 1 19.442721844034658 4.104485336312145 5.173710905300684 -1 0 0
23 1 17.959087560908266 0.7702187770723903 3.6107674067903064 0 0 0
145 1 19.55943244890522 1.2121183348905635 4.90189359517117 -1 0 0
1061 1 9.278691236862946 17.262934287901814 2.152131291394603 -1 0 1
32 1 3.072758203395673 6.154455158254631 3.455364341451795 0 0 0
170 1 1.2001639788813256 5.97716111751244 5.479116670860066 0 0 0
174 1 4.366903924649935 5.859211113549369 5.179437851440984 0 0 0
197 1 2.9967568833459852 7.594525635180332 5.286933589872631 0 0 0
51 1 1.2977641185960596 7.80351888087635 3.741758932553214 0 0 0
30 1 4.817346324786384 7.434282047563809 3.5582858245302638 0 0 0
36 1 6.31778027613365 5.91837418437507 3.6102872370333885 0 0 0
61 1 8.227168967625126 7.5078469502137 3.409559734664345 0 0 0
178 1 7.742338015637008 5.629566023787996 5.410067083624102 0 0 0
201 1 6.309057998954294 7.333402186737487 5.141563347261126 0 0 0
94 1 16.26798812979607 11.042756439886285 2.1461088632533123 0 0 0
49 1 1.216430560828791 6.281646271752384 1.8947172802992038 0 0 0
40 1 9.397277737199849 5.688557754904414 3.537025091631748 0 0 0
63 1 11.239266450811764 7.448323293715787 3.5533908620354024 0 0 0
182 1 11.088197143505628 5.968729397416397 5.498631860473603 0 0 0
205 1 9.354673208084948 7.167621765842908 5.281742982835076 0 0 0
44 1 12.913762683140165 5.837803602753735 3.5782908514951837 0 0 0
138 1 14.34461480593435 18.91904737658116 2.3275366148456658 0 0 0
209 1 12.981892586144186 7.696275685608686 5.279982693324824 0 0 0
67 1 14.308855306915227 7.5961612452154705 3.41254133549083 0 0 0
48 1 15.948379578300129 6.115671490198987 3.729253105134448 0 0 0
186 1 14.42393204453008 6.000881505784314 5.1072389831112 0 0 0
213 1 16.15436420321052 7.87843923795226 5.073411498600997 0 0 0
41 1 12.666688362811986 4.504158189984219 2.169671994247275 0 0 0
119 1 19.726276247870082 13.864785938989225 2.07566242047448 0 0 0
28 1 19.15685541522148 6.055639184945694 3.6643428631628225 -1 0 0
71 1 17.695063824535588 7.881870242716748 3.64627320680205 0 0 0
190 1 17.70524340865221 5.8929002523613345 5.038771725960835 0 0 0
193 1 19.25421372058642 7.6678035643446965 5.039945316012666 -1 0 0
1029 1 4.526202817486101 15.70232730995716 2.0071119719085035 2 1 1
194 1 1.1758336012219235 9.299738054642697 5.375104345470129 0 0 0
56 1 3.237913680473335 9.29624689626111 3.6905866597714407 0 0 0
76 1 1.1797899579569644 11.16495670968388 3.8455622568907812 0 0 0
221 1 2.990824030443719 10.659767379288034 5.21777582097174 0 0 0
218 1 1.5006182978325346 12.473033280201456 5.304290523759674 0 0 0
79 1 4.918509585429199 10.877318614899732 3.5991115909781426 0 0 0
198 1 4.776419405840564 8.75854884232102 5.094547553217797 0 0 0
222 1 4.515824858566699 12.57000262147457 5.365871094560983 0 0 0
29 1 4.855678357497451 5.808364583109815 2.0816732984946773 0 0 0
46 1 16.028180939964045 4.1775876451567004 1.8879292361509528 0 0 0
141 1 17.495235560349492 15.739624131523195 1.9717910345439287 0 0 0
73 1 19.896945008540904 11.33061729026382 1.8896472479723738 -1 0 0
1893 1 1.7688697988817457 12.701658726912287 2.1001502616776153 2 -1 1
55 1 6.404915962565618 8.898267789900569 3.460952852462465 0 0 0
85 1 7.90075724628241 10.862237297650315 3.5404886806972504 0 0 0
225 1 6.338441310895271 10.752319079968357 5.058063271346733 0 0 0
202 1 7.81439302731231 9.119514198040568 5.2145737260223735 0 0 0
84 1 6.604689216772437 12.519761115657836 3.3563635335277366 0 0 0
206 1 11.14228225166606 9.107469216374911 5.5709470219660595 0 0 0
59 1 9.751068289528586 9.235628766523623 3.944468446602482 0 0 0
87 1 10.863680536779288 11.070143422030759 3.717273902318464 0 0 0
229 1 9.604072991194501 10.887390410901366 5.422191875956473 0 0 0
1113 1 9.35957862441286 10.771266411211391 1.8283974458496666 -4 3 1
68 1 12.943881449824111 9.218415418345776 3.640706014030237 0 0 0
15 1 10.795250365329764 2.7541962720890645 2.102884793089741 0 0 0
1115 1 17.66173086325624 9.44065632840715 1.9619377441016153 0 -2 1
66 1 16.317010290349703 9.301809562135025 3.7069915657602497 0 0 0
91 1 14.903476854307312 10.977149500142051 3.712521320076051 0 0 0
237 1 16.33536773072992 10.76089760529543 5.1378349019550935 0 0 0
210 1 14.54328739794098 9.237231647398445 5.113091477015175 0 0 0
96 1 16.159011307793175 12.709120070257589 3.406448216812071 0 0 0
92 1 12.891495095611313 12.544796608099588 3.5457535659172543 0 0 0
234 1 14.505629798973974 12.605673119370065 5.0910903364142746 0 0 0
1630 1 14.650619604811018 5.971250140167825 2.0986775588943716 -2 3 1
33 1 6.38348615762643 4.278884187912761 2.025705021816322 0 0 0
277 1 9.681552102445297 14.472228105411448 2.1207733443649612 0 0 0
54 1 4.5202994081444565 9.027314971399875 1.8157676613249407 0 0 0
130 1 10.91326022198821 19.178909447058125 1.9714488914666761 0 0 0
52 1 19.361319517938917 9.572725590410109 3.499321708735672 -1 0 0
95 1 17.828802146583598 11.10369032502443 3.600100302276325 0 0 0
217 1 19.377264939789903 10.994503027634742 5.285833452396762 -1 0 0
214 1 17.983963235957077 9.495552208781502 5.292575563337021 0 0 0
238 1 17.60927371246273 12.692801771729364 5.169514091769754 0 0 0
1017 1 19.331072265343217 12.569669381674892 3.8573520454857784 0 1 1
90 1 14.443952550133828 12.26574438592613 2.004949186962651 0 0 0
113 1 12.618584879717545 14.779545821045106 2.0948251394981345 0 0 0
412 1 19.169921375564186 18.762049813132855 10.512627949577505 -1 0 0
101 1 3.438375003814589 12.432321509280923 3.4995829831275116 0 0 0
104 1 3.040320483865703 15.865768774452192 3.5151829012348226 0 0 0
245 1 3.176547902024398 14.007644451616818 5.423889169165464 0 0 0
99 1 1.492476490512862 14.085019105377878 3.7309375926103168 0 0 0
103 1 4.858129555745811 14.00285357524924 3.790190576354626 0 0 0
246 1 4.437738940592203 15.843114793372685 5.189044618880364 0 0 0
242 1 1.3476033657720956 15.882659964137211 5.539145391108776 0 0 0
1056 1 6.119900067541073 14.04801969054433 1.8885225512868387 0 -3 1
142 1 17.788280590127528 19.167916215772244 2.0558766231601733 0 0 0
493 1 19.304320008880538 17.328683164268867 11.992113748832105 -1 0 0
226 1 8.16085747328896 12.496652738788834 5.180651153203238 0 0 0
83 1 7.976792985308471 13.972777466806418 3.5302917010622137 0 0 0
107 1 6.19521114775806 15.698589354380347 3.6342082215889695 0 0 0
249 1 6.380765820316864 14.290345951189611 5.114839536294386 0 0 0
250 1 7.850514518301598 15.845555720224448 5.033102001748626 0 0 0
1910 1 7.903535717154984 9.01401750754481 1.9921242163460258 -1 -1 1
230 1 11.002749703269942 12.69607999158194 5.09740786446595 0 0 0
78 1 7.854519812493208 15.762074179365587 2.3338862809564036 0 0 0
60 1 9.487996782005963 12.692011838403674 3.205785691600603 0 0 0
111 1 11.103866564700388 14.508648657419037 4.003393338427541 0 0 0
136 1 9.531038612930137 15.989064150075416 3.8181903359907756 0 0 0
254 1 10.969650205852899 15.999638573206665 5.546303577158644 0 0 0
253 1 9.217936164699532 14.29581829961843 5.3722295892016385 0 0 0
424 1 9.839332362657593 19.107563694285645 10.314088752037721 0 0 0
257 1 13.013676879116614 13.97033173419994 5.658138025792962 0 0 0
81 1 6.382025961820013 10.690452964465825 1.867908599494484 0 0 0
42 1 19.383719095120824 7.718469815526568 2.189788296795066 0 0 0
135 1 12.77457243739775 16.044703987429163 3.872895411508714 0 0 0
116 1 14.25558317963273 14.258796025695672 3.451240254878959 0 0 0
120 1 15.639698385632464 15.700827945706985 3.6389741392233335 0 0 0
261 1 15.61757906800825 14.124896097071012 5.272174457580753 0 0 0
258 1 13.997369914693278 15.957662322366776 5.298810128897516 0 0 0
1378 1 9.78434003309798 8.065865450977284 1.7940511263195524 1 1 1
1734 1 3.05744393238498 1.3562806521510566 1.844118976465469 -1 4 1
69 1 16.04726893229296 7.648428522351018 2.184654106245234 0 0 0
100 1 19.396537315814903 15.694980721839567 3.7514543741382105 -1 0 0
97 1 17.800146118506007 13.992299164720055 3.077298619074006 -1 0 0
262 1 17.399544910616854 15.301682823192785 4.93805801078091 0 0 0
241 1 19.448959012976744 14.116573301367852 5.071784518974167 -1 0 0
1663 1 15.942096666233757 17.47986386903181 2.051021775970358 -1 -1 1
431 1 17.63418801600055 17.312857307937946 10.305874648008071 0 0 0
88 1 11.32909589972743 12.927854244191636 2.1531537666187486 0 0 0
128 1 3.065863371941357 19.004196116990073 3.3472874919397713 0 0 0
269 1 2.492076626701668 17.279357966864126 5.029249735112995 0 0 0
123 1 1.2660955861129781 17.574693753909052 3.439440524695361 0 0 0
270 1 4.318765044003539 19.12380138381051 5.322299926523501 0 0 0
266 1 1.5843236551685234 19.042491737126362 5.005138321763251 0 0 0
127 1 4.162018408740856 17.30451801315926 3.784603777258792 0 0 0
11 1 7.942785932908524 1.209776856869267 3.7778558231676698 0 0 0
497 1 5.948168075932939 17.364793443357 11.61282012044397 0 0 0
504 1 17.622442553636567 19.1554733978494 11.561718025246009 0 0 0
131 1 7.9545020275548675 17.72976338091106 3.8778167457910784 0 0 0
129 1 6.2365369491171565 18.842292421997712 3.922022370580577 0 0 0
274 1 8.04077858420348 19.438177912152547 5.388793147797636 0 0 0
273 1 6.222256933800837 17.30078636419136 5.29046686022124 0 0 0
501 1 12.823578020153468 17.623433673784227 11.883718144646716 0 0 0
134 1 11.157183501034472 17.6282498055214 3.574250047333399 0 0 0
106 1 9.482936516252265 19.40454234877916 3.4296537391260093 0 0 0
278 1 10.99114255291689 19.242970830716196 5.402374074682247 0 0 0
1883 1 9.234843439111822 17.633261619816516 5.41510253902377 -1 -3 1
498 1 8.060151011347372 19.111195867510567 11.748486669466432 0 0 0
437 1 6.395775839937956 0.9933680150587723 12.314070747755908 0 0 0
140 1 12.466077684056414 19.218853354028695 3.414029272441592 0 0 0
139 1 14.0436156686104 17.629196489911884 3.913192053183957 0 0 0
144 1 15.969922885037233 19.35498304838719 3.8081309083061003 0 0 0
285 1 15.827553457210547 17.30804587945653 5.004801777383669 0 0 0
282 1 14.396339436194017 19.195545527544695 5.244273206510465 0 0 0
496 1 4.322534541069562 18.829086532518886 11.980563946363812 0 0 0
420 1 6.317948282790618 19.153613922732283 10.572238089529904 0 0 0
441 1 12.610583434478091 0.9724204877493375 11.622330520250989 0 0 0
124 1 19.456751684449117 19.09098340336127 3.434920747693006 -1 0 0
143 1 17.759154917691134 17.789653372327436 3.7004509294620096 0 0 0
286 1 17.684040419858654 19.29950678353938 5.195803270155277 0 0 0
265 1 19.28246294424528 17.464796831366428 5.041098456620579 -1 0 0
152 1 2.8449363669472585 2.609150760951233 7.241648133718837 0 0 0
171 1 1.0500280869188827 4.2297035942262635 6.81172802357569 0 0 0
293 1 2.5688547433689806 1.0496828298076697 8.65281941835017 0 0 0
294 1 4.361379562873439 2.436690113819253 8.740709186269275 0 0 0
317 1 2.6707939969735204 4.054285702456978 8.58144692416558 0 0 0
290 1 0.9864348004781045 2.5785503084080026 8.662135800933203 0 0 0
147 1 1.3274716465053769 0.9274453224350742 6.951980090766136 0 0 0
151 1 4.298278177936343 0.783894474300726 6.982356341161054 0 0 0
175 1 4.191518928570846 4.315830015784987 7.231525466578996 0 0 0
156 1 5.512141495917853 2.4356305434487564 6.816898421845192 0 0 0
298 1 7.817577030495246 2.3868139515289872 8.78402977629484 0 0 0
321 1 5.894540929536484 3.715776489325996 8.601705473364369 0 0 0
297 1 6.030502603688966 0.9874912149890058 8.410354945561327 0 0 0
179 1 7.3540687472149955 3.916306684272036 7.099596864443307 0 0 0
155 1 7.988645130976174 1.1480786750480625 6.939554881773343 0 0 0
160 1 9.4868057206502 2.4479850559138194 7.235157871658282 0 0 0
302 1 11.32738719578669 2.6287485480238626 8.28282832007127 0 0 0
183 1 11.043149911920498 4.134461907645316 7.016312807542355 0 0 0
325 1 9.60158062600093 4.094196210706275 8.547172690188845 0 0 0
159 1 10.941954876696771 0.867003801378375 7.0852342389436656 0 0 0
301 1 9.764108111361567 1.1398190548629836 8.704482524540907 0 0 0
164 1 13.015814749346417 2.8233950854730057 7.061604924903677 0 0 0
306 1 14.629553888692014 2.806573533629298 8.650147517349662 0 0 0
168 1 16.118089890900965 2.173914584136581 6.888948215540276 0 0 0
163 1 14.378998004381822 1.216377272059816 6.94567501422671 0 0 0
333 1 15.945641659665874 4.25702966079954 8.489703681831308 0 0 0
187 1 14.298496979500133 4.331377743556539 6.820596110446112 0 0 0
329 1 13.05549991354451 4.072821416682059 8.70322716595861 0 0 0
305 1 12.957349609691677 1.0423280940100792 8.675691893407741 0 0 0
309 1 16.109715857606133 20.393271235178375 8.417329142379455 0 -1 0
148 1 19.356340957477045 2.606463047018088 6.675368062801931 -1 0 0
310 1 17.594390539845755 2.6389033650000666 8.627778876443212 0 0 0
191 1 17.73293102802402 4.258398176827406 6.613531889818187 0 0 0
313 1 19.236443978166513 4.065703819642843 8.54197342681583 -1 0 0
289 1 19.41313624738519 20.299472504809717 8.375929277959031 -1 -1 0
176 1 2.7412836160255383 5.942326286199955 6.872863344860074 0 0 0
341 1 2.6349974089579034 7.500099168691306 8.255828171072533 0 0 0
195 1 20.37391608543954 7.614040462623465 7.100166472699822 -1 0 0
314 1 0.8765452819803272 5.974348963509458 8.413816817736652 0 0 0
199 1 4.446384594321442 7.664598499874632 6.992074724809932 0 0 0
318 1 4.343217616193819 5.881285220402598 8.473618781135839 0 0 0
180 1 5.895665763137984 5.646396633264875 6.951465496610752 0 0 0
345 1 6.336321873938914 7.408359856680732 8.182305107302724 0 0 0
203 1 7.875547822939653 7.416609182716152 6.797226448938904 0 0 0
322 1 7.539723089790555 5.777197316465768 8.401285504441017 0 0 0
204 1 6.4751515008287654 9.066037868858228 6.9497466358820095 0 0 0
184 1 9.65506241574431 5.78803982734029 7.050465427735304 0 0 0
349 1 9.551226466110355 7.619432486167591 8.487311690723804 0 0 0
207 1 11.246570348178945 7.442785550327927 7.107641781761749 0 0 0
326 1 11.418580262925328 5.622725737043063 8.65319500010563 0 0 0
353 1 13.176549271141925 7.513183898498286 8.425900487882558 0 0 0
188 1 12.708196835362175 5.727091551572327 7.141052504155953 0 0 0
211 1 14.523474236819823 7.781446245316829 6.871898741040457 0 0 0
330 1 14.409173728932188 5.951331023053659 8.442310601394766 0 0 0
357 1 16.240665376957267 7.55045055867237 8.300998137622798 0 0 0
192 1 15.963255236090713 5.873947973858408 6.794778290425982 0 0 0
172 1 19.17246755665297 5.973799744654559 6.439415876828744 -1 0 0
337 1 18.893986179784605 7.600061225703394 8.22713755799485 -1 0 0
215 1 17.80074099674522 7.717300212212598 6.68147940936078 0 0 0
334 1 17.62950141238612 5.723567709463122 8.451650466280633 0 0 0
200 1 2.768255895401397 9.14877725691292 6.617439713368829 0 0 0
365 1 3.05030472076061 10.875324772473943 8.377686024472036 0 0 0
219 1 1.3650650437046234 11.040421622672712 6.962228610871727 0 0 0
338 1 1.3198058480663484 9.371118897126802 8.41821022366691 0 0 0
342 1 4.417762067655816 9.326336341307517 8.351878584331498 0 0 0
223 1 4.775373911589685 10.594259615153105 6.599170416528097 0 0 0
362 1 1.2962187706195625 12.668973981578958 8.585063916827707 0 0 0
224 1 2.941669711082526 12.704847465176279 7.0334671043369825 0 0 0
346 1 7.772282194570515 9.432057836675087 8.686037011801357 0 0 0
369 1 6.176380872383746 10.976828660482221 8.295818606231272 0 0 0
227 1 7.631846098786538 10.787015326125262 6.800643508251205 0 0 0
228 1 6.348364633951721 12.654613994556794 6.547190923583474 0 0 0
370 1 7.8465775586609965 12.350189149972456 8.73347717289833 0 0 0
350 1 11.20514339870978 9.258737923230775 8.274897687211466 0 0 0
208 1 9.24220123591425 9.037832868226685 6.8136158381195 0 0 0
373 1 9.378370720078546 10.971038481120623 8.498545482064037 0 0 0
231 1 11.32647493284936 11.024654779106655 7.017385544210367 0 0 0
212 1 12.954183054676834 9.563703597895747 6.60419463744005 0 0 0
233 1 12.80526039586413 11.04249611594081 5.223913924682085 0 0 0
377 1 12.95031707738791 10.948579670393999 8.336179593437299 0 0 0
354 1 14.980424137104274 9.249566670894433 8.322799310436967 0 0 0
235 1 14.595466714289849 10.922347375588128 6.930135856470575 0 0 0
381 1 16.162764453670924 10.991660795605535 8.48945464118555 0 0 0
216 1 16.129785422671315 9.386443333213657 6.611999947279503 0 0 0
378 1 14.355590265438003 12.744927063117926 8.904190030499322 0 0 0
358 1 17.811748480562578 9.563133095938671 8.402202182970612 0 0 0
196 1 19.10698602494722 9.380727418421616 7.139278478973742 -1 0 0
361 1 19.363720213534826 10.893674851700611 8.535462116051313 -1 0 0
239 1 17.738516929647922 11.353581225736097 7.159749210497541 0 0 0
243 1 1.2800877024134105 14.115076842148342 6.819824432476612 0 0 0
389 1 3.0698927238868072 14.211060669375748 8.482202661156357 0 0 0
248 1 2.8081989242076957 15.911162589367649 6.997021393409434 0 0 0
386 1 1.149428388579979 16.16411626512391 8.843335130468919 0 0 0
390 1 4.526086564900132 15.91307896473395 8.49729614084991 0 0 0
366 1 4.673007195406622 12.701139935505863 8.207209671997077 0 0 0
247 1 4.7184969312245 14.465950134496232 6.803487946164507 0 0 0
393 1 6.057548492823271 14.307827849909911 8.420847998094438 0 0 0
252 1 6.1289871859248795 15.839356990472393 6.696292080206793 0 0 0
394 1 7.621785305106599 16.085211977336627 8.55603347318608 0 0 0
251 1 7.911619429160957 14.279988578654281 7.168984434268678 0 0 0
232 1 9.512586786730266 12.579697915646717 6.835561605749993 0 0 0
374 1 11.031905552977895 12.720992434566007 8.700341948221507 0 0 0
397 1 9.445241806878903 14.180386439205023 8.532127939419269 0 0 0
255 1 11.07854554708165 14.212537385859388 6.794580874543208 0 0 0
256 1 9.23145932389269 15.94470845726668 7.089000943392861 0 0 0
398 1 11.070639934852203 15.329147633041613 8.619113003958276 0 0 0
260 1 12.707312083126027 15.902384654430803 6.835749617354061 0 0 0
240 1 16.010717298126924 12.70668528428432 7.233181982555146 0 0 0
236 1 12.701901374953097 12.791355639180855 7.210368653269446 0 0 0
401 1 12.72754741053524 14.323800582321912 8.736660006130808 0 0 0
259 1 14.512045823907396 14.095101331294476 7.287601355463303 0 0 0
402 1 14.591828607122437 16.261100031843583 8.801633918393765 0 0 0
264 1 16.013474718532386 15.817169201605275 6.83912580616215 0 0 0
405 1 16.210097070329795 14.406744754355746 8.67213764942199 0 0 0
382 1 18.211558939796014 12.822425282518354 8.684394152597182 0 0 0
220 1 19.41424122817675 12.838957379009424 6.810390357987209 -1 0 0
385 1 19.62236810885488 14.528115282126894 8.58492674228832 -1 0 0
244 1 19.18846866498219 15.776994733391597 6.4036401280038024 -1 0 0
263 1 17.692096163648735 14.313915175523249 6.854475714914532 0 0 0
406 1 17.60866636256049 15.770045098466069 8.55449169159376 0 0 0
413 1 2.775869582605877 17.127833031646276 8.890533349582059 0 0 0
272 1 2.5396852621067385 18.876518189741503 7.574872668934943 0 0 0
410 1 0.9930512044772254 18.745404807603066 8.91391889406725 0 0 0
271 1 4.356194695671125 17.504969001547714 6.7948346025590896 0 0 0
267 1 1.0356108112114701 17.56572255650339 6.67129936637242 0 0 0
414 1 4.631571274366685 19.042770335841304 8.339876021652355 0 0 0
417 1 6.088838141597327 17.392468426111165 8.607423522330361 0 0 0
276 1 6.335149841261066 19.309041002548973 6.670765442336303 0 0 0
275 1 7.582384512940953 17.529705288283758 7.048324369523509 0 0 0
418 1 7.510363795174918 19.389543673555437 8.60011765701232 0 0 0
421 1 9.433523031106489 17.393817380363792 8.87016667597155 0 0 0
279 1 11.258518800255201 17.441585260219412 7.163675365573517 0 0 0
280 1 9.573069371191286 19.094943458405993 7.269727540648576 0 0 0
422 1 11.203357854696533 19.12810665600516 8.735335212027035 0 0 0
281 1 12.414001218684232 17.744298980067867 5.079961812283727 0 0 0
284 1 13.029167896195665 18.92715959400025 6.8775121868932825 0 0 0
425 1 12.945957902772612 17.39841014458591 8.65588135192596 0 0 0
283 1 14.645223045173474 17.34780854255135 7.007610990626203 0 0 0
426 1 14.316250710417641 19.100151551017504 8.475734624828544 0 0 0
429 1 16.36751300985696 17.683902617001195 8.288280241974178 0 0 0
288 1 16.051391250412806 19.054254770128267 6.8171697896716115 0 0 0
167 1 17.952987824516207 0.9597285969911651 7.045470963802406 0 0 0
268 1 19.542587513253537 19.092151138311323 6.488901052433044 -1 0 0
409 1 19.305801863074706 17.322172529523435 8.539441894038701 -1 0 0
287 1 17.95162642574914 17.526886854542447 6.612698632139055 0 0 0
430 1 17.621125618913872 18.970706374137997 8.273234278319366 0 0 0
291 1 1.1578766141784413 1.026780832819722 10.247179182736817 0 0 0
435 1 2.6471868349865435 1.2611293701325965 11.678433041700634 0 0 0
296 1 2.8371332916438052 2.6749519710387064 10.069351640813785 0 0 0
434 1 1.2427899418277977 2.7726804781016474 11.61301327064401 0 0 0
315 1 1.1072982050922793 4.357236116691875 9.941935676855843 0 0 0
447 1 2.8847920560027918 4.374205033639407 11.418856014667053 0 0 0
319 1 4.358898846358459 4.26751308647296 9.901565527642196 0 0 0
436 1 4.474710274538235 2.477260594955463 11.895393731723324 0 0 0
295 1 4.512870332085411 20.343600927090968 10.532273728625098 0 -1 0
299 1 7.747694685890103 0.8977413933702046 10.333535348991177 0 0 0
300 1 6.16924222388289 2.27600028279808 10.179710670709062 0 0 0
438 1 8.159451297398057 2.376738285573529 11.9126198473016 0 0 0
449 1 5.823028651695537 4.32943626513597 11.67997399531294 0 0 0
323 1 7.551105259550863 4.332020388736941 9.900120723025731 0 0 0
503 1 16.233671778853896 17.34687093112703 11.820106319168524 0 0 0
439 1 9.667713527333143 0.9551070002378315 11.853144223049796 0 0 0
304 1 9.52725129967763 2.626663394673094 10.126502433873327 0 0 0
440 1 11.31078169577261 2.7207890467385933 11.92588887948455 0 0 0
327 1 11.210882191180005 3.9297228374733724 10.09744918766597 0 0 0
451 1 9.686817471701161 4.157291683465152 11.704440883734483 0 0 0
308 1 12.853138844551607 2.5202075821222056 10.088592874097959 0 0 0
303 1 11.40031189345747 1.1912072747663638 10.01595678446417 0 0 0
307 1 14.54835102996059 1.0900355547078957 9.948800829332166 0 0 0
453 1 12.959777936458222 4.149884737424459 11.57027405656576 0 0 0
312 1 16.253297982584474 2.7401911772256247 10.21163883533937 0 0 0
442 1 14.2387324776545 2.5840620421023086 11.897551034066446 0 0 0
331 1 14.667507228810859 4.352961943861699 10.153473750709995 0 0 0
455 1 16.11337236691531 4.196569501714155 11.63609849002387 0 0 0
443 1 16.33021739936757 1.036127737151702 11.44313239448648 0 0 0
311 1 17.752539622713996 0.9104710276948379 9.80129686750741 0 0 0
433 1 19.38238464636347 0.7891241816663864 12.031067714690188 -1 0 0
292 1 19.290434949543773 2.866496677040209 10.246413100111225 -1 0 0
444 1 17.936062862868518 2.548991978998134 11.95310442742243 0 0 0
445 1 19.31352642347683 4.5293871186384145 11.482875933653085 -1 0 0
335 1 17.621293300606133 4.542040781294166 10.0360681131901 0 0 0
320 1 2.5935195822051855 6.192056438660295 9.833171644373081 0 0 0
459 1 2.75472261917795 7.745530043106809 11.766154189184778 0 0 0
446 1 1.3332546017165607 6.0858707028234 11.66368437016289 0 0 0
339 1 1.2106686725731497 7.768552755050734 10.197193687587035 0 0 0
343 1 4.699317298303539 7.77043853963191 10.158488150410868 0 0 0
448 1 4.343625075054925 6.0629668266296175 11.246645700699688 0 0 0
347 1 8.158405494970385 7.55336886245259 10.136668449421803 0 0 0
324 1 6.114249351872045 5.906862706084549 10.404717180922566 0 0 0
461 1 6.178246833677189 7.7139969359742775 11.900030649064016 0 0 0
450 1 7.782742786666589 5.745413301957047 11.888020319318597 0 0 0
328 1 9.500987396238253 5.851375203957229 9.934594510774879 0 0 0
463 1 9.473946731948867 7.2534545908997226 11.880781249268571 0 0 0
351 1 11.168379976907927 7.366936642837611 10.072137171561845 0 0 0
452 1 11.038937467641874 5.844673393420111 11.924307131434716 0 0 0
502 1 14.46169641855982 19.53059691162988 11.790229049011616 0 0 0
332 1 12.84403804816314 5.682931155432144 10.290170533816385 0 0 0
465 1 12.660101648510837 7.250577647100976 11.934705972545556 0 0 0
355 1 14.314413948533229 7.673846264357544 10.193460398358118 0 0 0
454 1 14.396281611337853 5.852795604870937 11.822446603099456 0 0 0
336 1 15.954679644576515 6.059427784720286 10.175917576745219 0 0 0
467 1 16.065935122404138 7.550592539697201 11.697508536857793 0 0 0
316 1 19.20960505087777 6.101984498481604 9.967971443691395 -1 0 0
457 1 19.410353030171017 7.857811857272813 11.491043890527603 -1 0 0
359 1 17.489236673099732 7.739249601945649 9.997121696432703 0 0 0
456 1 17.828341817988672 6.152245140257227 11.373203608712323 0 0 0
432 1 16.05520095521296 18.837841802401122 10.036483661231797 0 0 0
344 1 3.1235140727740958 9.2435420276477 10.047593643168456 0 0 0
471 1 3.062747060080935 10.555845280462886 11.865609927493189 0 0 0
458 1 1.454480860774276 9.321528340489062 11.8706313450363 0 0 0
460 1 4.685146777417163 9.235785044757389 11.69313638266043 0 0 0
367 1 4.73544660608427 10.809618418150789 10.253626691446994 0 0 0
472 1 4.722129659820517 12.629108258312893 12.141192524850242 0 0 0
470 1 1.0851628299478384 12.509602903659703 11.68439560070539 0 0 0
363 1 1.4008113394531132 10.98372324926315 10.089448364000644 0 0 0
368 1 2.860148804989036 12.537586962786191 10.207036036600636 0 0 0
427 1 14.538661516130395 17.486632163374168 10.60357086912496 0 0 0
462 1 8.111616895589016 9.263342263765562 11.5337165177792 0 0 0
348 1 6.348740053207603 9.042788114703228 10.093390162242029 0 0 0
473 1 6.116645593819873 10.927386565950073 11.687995941748508 0 0 0
371 1 7.926070913317009 10.917033714635295 10.260110083732473 0 0 0
372 1 6.086713546136786 12.579813745496873 9.961057400493731 0 0 0
474 1 7.677935404749045 12.512146218618316 11.668843433479827 0 0 0
428 1 12.713831767623073 18.988952448441474 10.339339722980746 0 0 0
419 1 7.727446658538416 17.70707976661911 10.076235177343309 0 0 0
464 1 11.162891717207062 8.998285490984978 11.491449521959243 0 0 0
352 1 9.596901222486064 9.223924696689133 10.222731071778544 0 0 0
375 1 11.035599733396861 10.965103009766642 9.886839337757586 0 0 0
475 1 9.791978078588448 10.581526121870713 11.712861134244934 0 0 0
476 1 11.376497782659598 12.364384088209487 12.04007348748756 0 0 0
477 1 12.968086100148847 10.789023948448094 11.752639586441408 0 0 0
356 1 12.577067690124036 9.03214303578757 10.164302975628292 0 0 0
466 1 14.572913011462994 8.853139768758874 11.63036094532551 0 0 0
379 1 14.526829864261945 10.714250079286625 9.962274396208265 0 0 0
479 1 15.977696245688179 10.49730270393446 11.877496165913637 0 0 0
360 1 16.09966564770579 9.317413959252098 9.996809087613531 0 0 0
384 1 16.12744174246551 12.337063384280832 9.898718350517274 0 0 0
478 1 14.523531734588264 12.491397861969924 11.476193681375952 0 0 0
380 1 12.610310854312358 12.50164404009025 10.352063792366328 0 0 0
340 1 19.67877107206398 9.268566320383332 10.144684421584774 -1 0 0
468 1 17.65932983029679 9.03601084562925 11.882572136703832 0 0 0
383 1 17.752122934031306 10.898429123340927 10.385830926049701 0 0 0
469 1 19.382573340562246 10.860111731876517 11.588530333719588 -1 0 0
480 1 17.468051825893802 12.550475297640121 11.79681745675243 0 0 0
364 1 19.31826641712391 12.862925369095366 10.192239010767498 -1 0 0
387 1 1.4173374938807628 14.194744899093502 10.369657189247462 0 0 0