LAMMPS data file via write_data, version 29 Oct 2020, timestep = 150000

2016 atoms
1 atom types

-0.20316294417914982 21.46716294418063 xlo xhi
-0.20316294417914982 21.46716294418063 ylo yhi
-0.47404686975162846 50.09004686974964 zlo zhi

Masses

1 58.933

Atoms # atomic

27 1 2.1885891005298754 3.461631516617514 1.4973727253362739 0 0 0
8 1 3.8764752381608494 1.6460745393240237 1.283985341420673 0 0 0
146 1 2.3635060670327968 1.5855104497299415 3.1112557267985705 0 0 0
173 1 3.6583148005122816 3.364650676209585 3.6643372438487765 0 0 0
149 1 3.7165212342064233 -0.08427292552710952 3.597809472217943 0 0 0
145 1 0.14591557780447628 0.0031673938275656177 3.483942288828531 0 0 0
4 1 -0.0401828596576847 1.798298071965529 1.3155814181835825 0 0 0
169 1 0.28744024697457143 3.3182682673359505 2.9391358438136366 0 0 0
29 1 3.907239626506904 3.6131250689958554 -0.4672400931177765 0 0 0
3 1 1.5980625641888293 -0.09295310285768763 1.5034456648458636 0 0 0
25 1 0.30223729173042646 3.5947868824554603 -0.443897705401306 0 0 0
1734 1 2.048471123818555 1.6589928335084676 -0.16939298872721148 -1 4 1
1 1 0.025502803688702586 -0.038221670612870184 -0.2842109220077731 0 0 0
12 1 6.732131176415124 1.1765102545444863 1.2726893870064484 0 0 0
31 1 5.619592940994417 3.556395834972758 1.51453778652839 0 0 0
177 1 7.254344601577243 2.9382524460872905 3.514981414089358 0 0 0
150 1 5.250733459090317 1.6683752704913883 3.0703317144126547 0 0 0
153 1 7.298407780135808 0.07480231416528965 3.383851975437129 0 0 0
33 1 6.994841544063693 3.299125322277179 -0.35456991315957964 0 0 0
37 1 10.563654240644178 3.381530194204791 -0.37815705788422843 0 0 0
16 1 10.944327775411912 1.1662785678534395 1.526482068221945 0 0 0
35 1 8.930776872170046 3.309483116822118 1.5721499203186204 0 0 0
181 1 10.661015392741866 3.5954636491492127 3.3849782818478356 0 0 0
154 1 9.135799579623349 1.6567895023699644 3.3200882650125054 0 0 0
158 1 12.613362035497522 1.449074967022647 3.1401262614762033 0 0 0
39 1 12.428302441838232 3.3603062473543166 1.6230575414293695 0 0 0
14 1 12.51137783017535 1.6013722822232948 -0.25568346947660525 0 0 0
157 1 10.862163820625405 0.014122574335516447 3.4109280594893887 0 0 0
20 1 14.402459555272438 1.5563286353881807 1.480412454038271 0 0 0
43 1 15.931892850747142 3.1629631897472 1.8125703429045772 0 0 0
185 1 14.376514014762414 3.355720946691273 3.3831575210128153 0 0 0
162 1 16.1235504730951 1.5281179153220334 3.679640454767944 0 0 0
18 1 16.280871209199503 1.661079251685047 -0.0817608387151253 0 0 0
41 1 14.202720949663112 3.5727264207016862 0.19408150755269193 0 0 0
17 1 14.648853032097046 -0.06384686350137572 -0.43127939485537764 0 0 0
19 1 16.313594542455597 -0.15839320377556665 1.494918271597472 0 0 0
161 1 14.318891311745707 -0.18928214386230732 3.4127492183568093 0 0 0
24 1 18.0840725366296 1.667365597082583 1.5443043592129087 0 0 0
166 1 19.84759401902616 1.5806034360126417 3.4284192512063747 0 0 0
47 1 20.212162064064252 3.7459207645661787 1.5100775755582587 0 0 0
189 1 18.279778180508266 3.2875948543637206 3.243955059190447 0 0 0
165 1 17.412328265706833 -0.049791765858742565 3.4783390464637165 0 0 0
22 1 19.79338307367177 1.8549340904418408 -0.26684123126971093 0 0 0
45 1 18.039864318179823 3.517038140007162 -0.1902248574645352 0 0 0
21 1 18.179614408667668 -0.13653990669757116 -0.11307917582472632 0 0 0
49 1 0.0575385185117539 7.134167372678768 -0.3449131450101006 0 0 0
32 1 3.7841115805468997 5.12064566466131 1.802676518656257 0 0 0
51 1 2.1303003192637617 6.781251225353229 1.4831605755576416 0 0 0
170 1 1.957678400524872 5.5881684214847915 3.4177845684847976 0 0 0
193 1 -0.04189748765309281 7.443762552969025 3.170504273275424 0 0 0
28 1 0.28996363691649946 5.5232911505023505 1.458820214437247 0 0 0
197 1 3.929133046273563 7.154342864511964 3.280763803497233 0 0 0
53 1 3.8700946687839997 6.822745310851712 -0.4390621180504633 0 0 0
36 1 7.589560773257615 5.162213396780765 1.2791812874191228 0 0 0
55 1 5.381630994278612 6.737089817619369 1.295419360601182 0 0 0
201 1 7.464106467553182 6.711952769186563 3.114312826332823 0 0 0
174 1 5.574045448022186 5.056549061784123 3.3511610473884 0 0 0
198 1 5.847554907466766 8.376655104803405 3.130655673436272 0 0 0
57 1 7.27911100219639 7.320125153514076 -0.4658060689007412 0 0 0
61 1 10.813320802953205 6.85230156099425 -0.412803586626959 0 0 0
59 1 9.098577601149097 6.90215607748991 1.3703668984352295 0 0 0
40 1 10.56569109104461 5.056568193091765 1.4372948566529598 0 0 0
205 1 10.695209133151502 6.593654188711767 3.5299817947014027 0 0 0
63 1 12.657441691286438 6.859735593940383 1.3174852793906502 0 0 0
178 1 8.93267253912543 4.697353672840664 3.484832984185622 0 0 0
182 1 12.683953344256537 5.2891941938678 3.590494045893684 0 0 0
38 1 12.423739197878573 5.096017023772074 -0.09948526420199166 0 0 0
206 1 12.217146583972813 8.360867384992542 3.3420694424793105 0 0 0
44 1 14.594182851850201 5.349640900772574 1.5092121320037097 0 0 0
67 1 16.271766057928048 7.193353287521274 1.3464035821968352 0 0 0
209 1 14.474496035003744 7.078765381956695 3.228575175376346 0 0 0
186 1 16.23005276846157 5.152287694397782 3.0239736751183113 0 0 0
42 1 16.444431704441556 5.26264769118569 -0.35293019273823467 0 0 0
1703 1 18.197888988472407 7.089608687292085 -0.3727427528735062 -2 -3 1
48 1 18.223337735743208 5.370288267514661 1.4204204431967242 0 0 0
71 1 19.656802204016927 7.35467459656016 1.5033930018666877 0 0 0
213 1 18.238303483517115 6.967136634035374 3.3309284537344532 0 0 0
190 1 20.239627784032024 5.449829243447333 3.0147053478461405 0 0 0
46 1 19.997971946058392 5.376070584959117 -0.23470172056272168 0 0 0
73 1 0.02584521828161007 10.360130210937447 -0.3812241427872578 0 0 0
74 1 1.9686957009928134 12.51600856007102 -0.2938161997525505 0 0 0
50 1 1.9747248324713005 8.8512036320798 -0.15674871692735315 0 0 0
56 1 3.7644613321083327 8.587942191074978 1.320446195950595 0 0 0
194 1 2.124110143078736 8.587604047200344 3.178987646937048 0 0 0
75 1 2.3180897734786354 10.515608539361985 1.5477685707384348 0 0 0
221 1 4.040630154617757 10.25763319454711 3.222198778545892 0 0 0
218 1 2.0775641397319546 12.378016980441265 3.2594761571277084 0 0 0
217 1 0.11771088225545556 10.376257937592545 3.5561941842292155 0 0 0
52 1 -0.12615835972651562 8.874640251030797 1.3588914813292678 0 0 0
80 1 4.012463924229389 12.458545152544236 1.6453176763281419 0 0 0
76 1 0.41680306249748245 11.967387140702602 1.747695394881072 0 0 0
77 1 3.613765900818126 10.54133242158162 -0.33209783913322805 0 0 0
81 1 7.47505268361395 10.781272006604713 -0.3789989026301087 0 0 0
60 1 7.427239341174929 8.895763065120402 1.1689836703985133 0 0 0
79 1 5.627942121985034 10.547900843291865 1.3370789626955075 0 0 0
225 1 7.504594094870722 10.339138978995445 3.2114886039794093 0 0 0
84 1 7.7029370434770374 12.74060572321215 1.6288804712218532 0 0 0
222 1 5.9388100930601055 12.44026216477363 3.2910327766619174 0 0 0
78 1 5.568163316738341 12.46383386631815 -0.233098705819192 0 0 0
202 1 9.14502609024832 8.680333137231766 3.277821864055067 0 0 0
64 1 10.885660872679274 8.618874335041035 1.3680468675164734 0 0 0
83 1 9.124490470228704 10.55313170580366 1.3405027748446212 0 0 0
229 1 10.847047957672395 10.58435610592255 3.6374874387788623 0 0 0
88 1 10.698175699559107 12.518550825631026 1.619843450386139 0 0 0
87 1 12.780603095560384 10.76523498827662 1.941902447418789 0 0 0
86 1 12.713283776458717 12.461119278794957 -0.1235130000823122 0 0 0
82 1 9.101453963841946 12.608129683605618 -0.1581549781558209 0 0 0
85 1 10.984920807825919 10.748824345007922 -0.21114532148168053 0 0 0
62 1 12.818764763764694 8.631642288224883 -0.08923966625958007 0 0 0
66 1 16.35021795057365 8.836507051090157 -0.22930271055158957 0 0 0
68 1 14.682503020038014 9.198720292671906 1.7864637398251788 0 0 0
91 1 16.31473808434953 10.702750673984728 1.2573025450170268 0 0 0
210 1 16.369952804318082 9.044047127987938 3.4925456919794495 0 0 0
233 1 14.771511759747153 10.608695742039632 3.659890605235769 0 0 0
92 1 14.575605654282784 12.27622879600644 1.4711308009934434 0 0 0
234 1 16.339639786860786 12.47450602006744 3.096738810124817 0 0 0
89 1 14.452406110456966 10.351704016683371 -0.2442376279675314 0 0 0
94 1 19.681988630365005 12.287906612422686 -0.3664541675605504 0 0 0
214 1 19.773694503702593 9.060408204573989 3.341872160787992 0 0 0
72 1 18.151739219184485 9.10008606531819 1.1661860231181342 0 0 0
95 1 19.97538506152751 10.628888470276602 1.5308529328144305 0 0 0
238 1 20.374330945532762 12.535483977882834 3.454283872441944 0 0 0
237 1 18.261642190874802 10.687967101982432 3.5570298373333467 0 0 0
96 1 18.34220479659524 12.299801005015546 1.5102189497159284 0 0 0
97 1 0.12338650329045603 14.016534796157805 -0.15224187138184414 0 0 0
1017 1 3.914906414386082 14.036791294156993 -0.32865837765085115 1 1 1
99 1 2.0962070937499866 14.08205246654464 1.5044719244990907 0 0 0
123 1 3.877538740136429 16.300692414935043 1.4630902193062436 0 0 0
242 1 2.0997915114445354 16.027023281422352 3.1270804232626768 0 0 0
245 1 3.8225552343939455 14.521045164170092 3.2558782895305134 0 0 0
118 1 -0.18117847796536574 15.715402413450974 1.6823550379462229 1 0 0
241 1 0.5268058842534246 14.243129990202322 3.3566271990966254 0 0 0
98 1 1.8736956579628985 15.875972866624815 0.0926051849605608 0 0 0
103 1 5.481208457022468 14.290755441845869 1.477729252098395 0 0 0
108 1 7.444293814796217 16.0667550033767 1.5252632159979225 0 0 0
246 1 5.614640588504764 16.42563950068441 2.96020451178957 0 0 0
249 1 7.584295727120403 14.227323748660591 3.2222320126017223 0 0 0
105 1 7.110688178116784 14.446201492381643 -0.22800211664082326 0 0 0
106 1 9.136270621529725 16.20461997783324 -0.4007948535803095 0 0 0
107 1 9.581145573112519 14.545943244131463 1.6412562217408317 0 0 0
112 1 11.225197503448905 16.26994632182106 1.2262539442633535 0 0 0
253 1 11.033752655771762 14.193046022556816 3.44916818921376 0 0 0
250 1 9.322762348790082 16.138672572553233 3.369544535965623 0 0 0
109 1 11.126419847347181 14.384868774586996 -0.40032736675318364 0 0 0
111 1 12.893780311933268 13.945922549647518 1.7979348848886945 0 0 0
254 1 12.8927863307219 16.23445854161433 2.879819218401471 0 0 0
116 1 13.074484839010067 15.609404254190299 -0.31564876186577484 0 0 0
115 1 16.275381063975317 14.340352475789146 1.6241506327476736 0 0 0
114 1 14.61493917627108 15.98575115873947 1.2313665666204836 0 0 0
258 1 16.240577338284325 16.043755068281122 3.3117864483773802 0 0 0
257 1 14.435364819680826 14.405206867305024 3.551222138808691 0 0 0
113 1 14.921687418015125 14.213468082386171 -0.3374618767978738 0 0 0
1763 1 17.707231523761024 14.172036607707838 -0.23390808140925506 2 1 1
117 1 19.51351874995585 15.724591431351305 -0.1287128912890398 0 0 0
119 1 19.72871924411743 14.296044700090095 1.6673812087011344 0 0 0
120 1 17.666323229145036 15.961432917978838 1.499697810501263 0 0 0
261 1 17.982338433384676 14.494466277816073 3.436893890481759 0 0 0
262 1 19.993564334213964 15.83319649811349 3.387914446501011 0 0 0
5 1 3.2144775031665933 21.33328570353894 -0.21952858068633585 0 -1 0
100 1 1.9041824061074095 17.98471474664109 1.8056139379698224 0 0 0
128 1 3.408058760898468 19.837050296607323 1.6072210045550408 0 0 0
269 1 3.8304334079957654 18.174775448304153 3.4200640773753173 0 0 0
266 1 1.92458638085354 20.26863335922912 3.2857565567358114 0 0 0
124 1 -0.050227677040311614 19.4878163311879 1.4685257069911843 0 0 0
121 1 0.3716943599618632 17.587494947822805 -0.20451330655239203 0 0 0
265 1 -0.024282316000248938 17.91931449208988 3.406294689924166 0 0 0
125 1 3.462315930095691 17.82271623921502 -0.25336911351616453 0 0 0
122 1 1.5275424080282232 19.570829251716916 -0.16990169654086174 0 0 0
7 1 5.101612776708387 21.159019411269853 1.2937693699716317 0 -1 0
127 1 7.150711996582293 17.927880838571987 -0.13780130554382142 0 0 0
104 1 5.253856413083232 18.30269170816402 1.3306680597111795 0 0 0
132 1 7.129103877400725 19.938755111758233 1.6229819436097173 0 0 0
273 1 7.617758787707385 17.869436867103218 2.9288120927811594 0 0 0
270 1 5.582147636785942 19.92584096422926 3.2160456923864977 0 0 0
15 1 12.790887727505847 21.31413048348613 1.5869805219680724 0 -1 0
134 1 12.722891414673166 19.68523739978732 -0.3024319864315792 0 0 0
130 1 8.85445741061943 19.37303195610852 -0.22109923126808617 0 0 0
11 1 9.001841106003837 21.252053730976172 1.3501192397444566 0 -1 0
131 1 9.465097605240137 17.966645988743892 1.3847130970163637 0 0 0
136 1 10.955039614614927 19.542319630545876 1.7358327060522063 0 0 0
277 1 11.104577486254495 17.829821286211143 3.139947239448632 0 0 0
274 1 9.331337379749163 19.976560771255137 3.1856964896319195 0 0 0
278 1 12.613494534910625 19.885869316390888 3.174825610409177 0 0 0
133 1 10.96266196086112 17.78717338258121 -0.3628704375449274 0 0 0
135 1 13.137145304841875 17.853682066176923 1.2494207164244342 0 0 0
139 1 16.044321751999092 18.0907443204231 1.3910941920639963 0 0 0
140 1 14.4649116292276 19.89228906950052 1.2378931883164366 0 0 0
281 1 14.3798102111016 18.100209728639456 3.5572162090267456 0 0 0
282 1 15.691466645328456 19.631995634350638 3.0745522471265296 0 0 0
138 1 16.104552164153887 19.731358606764893 -0.37492555004864414 0 0 0
137 1 14.443652053671023 17.76952457286677 -0.44782206900185884 0 0 0
141 1 17.725760237746883 18.166296078368106 -0.06566146569413128 0 0 0
142 1 19.929120999514417 19.765144173694978 -0.22046323198014905 0 0 0
23 1 19.88828148686966 21.37030182596853 1.498689945321294 0 -1 0
143 1 19.853941614616033 17.52264989225678 1.4455351845319981 0 0 0
144 1 18.25644389312143 19.621104699350752 1.7189552386455649 0 0 0
285 1 18.063483462035222 17.81180622733858 3.224768664763742 0 0 0
286 1 19.957976911917065 20.16844910296286 3.4312924490734544 0 0 0
171 1 1.928283778551945 3.6517078031117474 5.163093862141255 0 0 0
290 1 1.5173326400568057 1.912410724865929 6.889032325636499 0 0 0
317 1 3.557556947596777 3.795498138269657 6.731618376077838 0 0 0
152 1 3.5158621692090746 1.7534741511683094 5.376009369189598 0 0 0
289 1 0.02015708407543279 0.016220936058864766 7.021694075629646 0 0 0
148 1 0.09252561152428262 1.8271997661862271 5.094888696777916 0 0 0
147 1 1.7165306403947689 0.04587680680085526 5.454238078747988 0 0 0
156 1 7.573106322777715 1.5327589675236095 5.232287033873764 0 0 0
294 1 5.694929189140045 1.050502425774102 6.782039487722729 0 0 0
321 1 7.016967111720184 3.1236565347298213 7.171009124316473 0 0 0
175 1 5.4693972354277705 3.2280750367166973 5.209294884785229 0 0 0
151 1 5.574698024250211 -0.044463166099362184 4.8302706991019875 0 0 0
179 1 8.900376406891018 3.201776411867835 5.452803718663464 0 0 0
298 1 8.913491028533144 1.3984141680495432 6.93413869774218 0 0 0
160 1 10.837115630663044 1.3856915353069272 5.158248600422611 0 0 0
325 1 11.075788515193569 3.0637968298362073 6.708496623908966 0 0 0
302 1 12.76526982782406 1.2900573334084193 6.872953637345515 0 0 0
183 1 12.560946272190195 2.9942457116613306 5.025835867523176 0 0 0
159 1 12.731421749186149 -0.04875787796598985 5.110973524320849 0 0 0
164 1 14.441225127033793 1.5356573770951065 5.191198847045245 0 0 0
187 1 16.057684525792936 3.3115168628113314 5.317787441844301 0 0 0
306 1 16.337102564528543 1.922193686261199 7.281203618714298 0 0 0
329 1 13.98057478924484 3.351108447525485 6.854621429131782 0 0 0
305 1 14.541808916908954 -0.18774679271334094 7.376966104991881 0 0 0
163 1 16.151236941518192 -0.06982380745156291 5.589328351858376 0 0 0
313 1 21.28302519365148 3.36369047607329 7.244172677161482 -1 0 0
168 1 17.814346746257534 1.5419901362172226 5.3576521320703865 0 0 0
333 1 18.012195353001523 3.469500825662344 7.12712488568927 0 0 0
191 1 20.05229162345387 3.383184798321417 5.250780069589583 0 0 0
310 1 19.626717525402917 1.6243672104395885 7.190758150087949 0 0 0
309 1 17.877387075632868 0.012409232665513303 7.222978932955616 0 0 0
167 1 19.764042133849344 0.21416693434595935 5.092049301060295 0 0 0
195 1 2.045824179920392 6.9879251357826035 5.108693183193332 0 0 0
314 1 1.5345430053928688 5.4138736697469145 7.375591535756095 0 0 0
341 1 3.605534285618016 6.801790284059232 7.039719396122099 0 0 0
176 1 3.6305416672371287 5.311178850650255 5.024717798081772 0 0 0
172 1 0.27147959529409355 5.394967823853594 5.271155583432666 0 0 0
337 1 0.3225107247451836 7.588392352175718 6.992513542109507 0 0 0
180 1 7.100459303744426 4.999822893442488 5.088910863829545 0 0 0
199 1 5.774030047804342 6.893699520990709 4.811198049010447 0 0 0
318 1 5.420526690433441 5.145141428507279 6.783698047044922 0 0 0
345 1 7.020497150113047 7.011989685408031 6.919154572111366 0 0 0
322 1 8.667609907825028 5.078500146419994 7.125780422087258 0 0 0
203 1 8.729929347588143 6.895282487508695 5.090543803796029 0 0 0
184 1 10.909479481104517 4.7127766561405116 5.586420342585439 0 0 0
349 1 10.338554857221503 6.837155159935917 6.791523886458561 0 0 0
207 1 12.564004653801508 6.817691228802845 5.269226206616035 0 0 0
326 1 12.471724678794223 4.91150866790248 7.054397162181367 0 0 0
188 1 14.486271618473097 5.167909030348169 5.126377447597866 0 0 0
353 1 13.994282785114018 6.836406670451903 7.030000828902928 0 0 0
211 1 16.29938542919173 6.748538781662363 5.087443185705073 0 0 0
330 1 16.045730193239095 4.9519233414489365 7.102925429068665 0 0 0
192 1 18.059496043451034 4.70476686769064 4.851713473315785 0 0 0
357 1 18.164894871428153 6.854661085977896 6.772844103256491 0 0 0
215 1 20.216098427183866 6.926013323364206 5.171645487818807 0 0 0
334 1 19.803666727577365 5.312040691690484 6.716008016428379 0 0 0
196 1 0.11991468395900784 8.722813390300232 5.051110354324077 0 0 0
338 1 2.0693575814031835 8.958881814402488 7.1291157471169795 0 0 0
200 1 3.9817387305094796 8.744973730088793 5.095402573791561 0 0 0
219 1 2.210482830413793 10.339496856722139 5.071461577283158 0 0 0
365 1 3.596846515511117 10.893015344276924 6.958883684520565 0 0 0
362 1 1.491966364086604 12.103639772688034 7.393378003426948 0 0 0
224 1 3.5758687307108787 12.19521539064348 4.978665840607439 0 0 0
361 1 0.25555733564131783 10.445493897282915 6.861296755666384 0 0 0
220 1 0.4206397914518677 12.150104613242583 5.2278537198008195 0 0 0
342 1 5.298620124503092 8.680454300213919 6.9710721368011646 0 0 0
204 1 7.256530610268326 8.820655873196918 5.076657131243038 0 0 0
223 1 5.5761764967998895 10.791961571920217 5.3345241682239 0 0 0
369 1 7.226319776631186 10.732738382215759 7.1272777529924936 0 0 0
228 1 7.058142324705282 12.673617488438127 5.263548799104385 0 0 0
366 1 5.384352678521152 12.464796170809464 7.097359325822755 0 0 0
226 1 8.903949752001475 12.16223151212007 3.8767030501331083 0 0 0
230 1 12.704678809242667 12.459773790878618 3.8592887193978234 0 0 0
346 1 8.982488014414622 8.602656663212077 7.141613305733155 0 0 0
208 1 10.409957436682772 8.62374182690528 5.170409776454781 0 0 0
227 1 8.886719922379598 10.547676880561692 5.30676881035791 0 0 0
373 1 11.073712070911657 10.727587986437156 6.752439634746331 0 0 0
370 1 8.995489561461465 12.495133602918882 7.418956577089009 0 0 0
232 1 10.728309918658068 12.459568353818437 5.671024939909568 0 0 0
231 1 12.707229145158431 10.332227465893382 4.853801880202089 0 0 0
350 1 12.420850502761404 8.608632951501365 6.784652647229504 0 0 0
374 1 12.731066918578112 12.318752298603563 7.2342867135472 0 0 0
354 1 16.579019924882992 8.57482052282392 6.724989038290959 0 0 0
212 1 14.644837955141883 8.494377203184957 5.345321462337558 0 0 0
377 1 15.03518193934226 10.31579471546674 7.071403175931268 0 0 0
235 1 16.53870924628528 10.801190521215066 5.070550020578569 0 0 0
378 1 16.621859029357545 12.6340831369625 6.79341399695386 0 0 0
236 1 14.607923914490092 12.224652573514845 5.381328024739508 0 0 0
216 1 18.346026663051582 8.49359853769607 5.146566196871845 0 0 0
358 1 19.98544009168632 8.792016031787243 6.9967133759589 0 0 0
381 1 18.275848319645085 10.26592628405115 7.201436123235295 0 0 0
239 1 20.11194967874829 10.593852805681376 5.22629436057171 0 0 0
382 1 20.341884396091388 12.13269973130909 6.802620094045143 0 0 0
240 1 18.373946516109534 12.578440802261767 5.035121464134228 0 0 0
243 1 2.068516923013648 14.414849804504513 5.077317021422563 0 0 0
386 1 1.9039745773837926 16.77305499828305 6.759052799914952 0 0 0
248 1 3.763994377771008 16.21291700914516 4.9163565288347035 0 0 0
389 1 3.554677983058875 13.843635424939235 7.166568856352496 0 0 0
385 1 0.3296689013947929 14.356009991949835 7.305576512617283 0 0 0
244 1 0.1410485726950519 16.139031547945095 5.033147698644939 0 0 0
247 1 5.818591905079889 14.770386873137188 4.799592505402373 0 0 0
393 1 7.465163818895512 14.14933929093585 6.775820124909469 0 0 0
252 1 7.6933908925065975 16.224085364709907 4.782279426949658 0 0 0
390 1 5.072390610687556 16.07365679839541 6.788878605917465 0 0 0
394 1 9.3916821292142 16.032181214570812 6.889488870255759 0 0 0
251 1 9.295104151949245 14.247645728173385 5.239540013401656 0 0 0
397 1 11.316639287668528 14.305693478094563 7.046123480063755 0 0 0
256 1 11.150910502627816 16.12144261165622 5.008132021902784 0 0 0
255 1 12.6892328137781 14.293564968240137 5.307601446392672 0 0 0
398 1 12.89180735178788 15.988465803187564 6.906401892628357 0 0 0
401 1 14.687172921632158 14.091292218160774 7.087283372056631 0 0 0
259 1 15.94210913559739 13.983470129601907 5.118694249003882 0 0 0
260 1 14.754650983565694 16.243138277331603 5.453922720105577 0 0 0
402 1 16.468683675664046 16.29161961318352 6.854342675495344 0 0 0
405 1 18.57248910660831 14.062328542181636 6.847964333128557 0 0 0
263 1 20.212945875314816 14.284337111186348 5.233907824343065 0 0 0
264 1 18.32204334162521 15.932555287656742 5.041970663946067 0 0 0
406 1 20.109690169531824 15.746838243582935 7.082354402094683 0 0 0
293 1 3.7718076298999983 21.381918121938597 6.7695779955049336 0 -1 0
267 1 1.8953650665914763 18.075680451980816 4.651874292502291 0 0 0
410 1 1.5696797372727975 19.178859575886456 6.7560328266086485 0 0 0
413 1 4.115367861354378 18.178224621844294 6.736102158067132 0 0 0
272 1 3.779021540245285 19.692499871016707 5.008339207398591 0 0 0
268 1 0.08095515101405792 19.890312628393772 5.1633141406303 0 0 0
297 1 7.560301957643594 21.260446903180963 7.374605793301744 0 -1 0
271 1 5.783292380817211 17.762612944865353 5.124781158758676 0 0 0
417 1 7.70853967272468 17.780067934651655 6.42163063498279 0 0 0
276 1 7.39556838681034 19.890346759083016 5.02352091828392 0 0 0
414 1 5.68876466214844 19.87075235513771 6.501843536946029 0 0 0
301 1 10.856005526834872 21.42222063680309 6.776410472840002 0 -1 0
155 1 9.113105838665694 21.416038539954712 5.301032836771793 0 -1 0
421 1 10.888778136799855 17.776845804649483 6.75012604457768 0 0 0
418 1 9.176485640584028 19.35725300658701 6.696211700007543 0 0 0
275 1 9.200901733928026 18.077309647368523 4.781527957028937 0 0 0
280 1 10.992762214806957 19.915629445201006 4.890759873894826 0 0 0
422 1 12.659034770249365 19.76761252202678 7.199658444422828 0 0 0
279 1 12.80776078384268 18.089996975549944 5.0746911553661 0 0 0
425 1 14.41383956090577 17.960929046402512 6.977603427529337 0 0 0
283 1 16.271703957786293 17.95776853104403 5.088780801622657 0 0 0
284 1 14.26473122563536 20.04233589507964 5.44056011647595 0 0 0
426 1 16.371008195356026 19.713315261062135 7.069329752737525 0 0 0
409 1 21.42689370658704 17.79654800783453 6.947123899902512 -1 0 0
429 1 18.32912681517569 17.58785906935725 6.946184763042959 0 0 0
287 1 19.95434418858975 17.719107474254372 4.897698038241856 0 0 0
288 1 17.74051215824521 19.795671412465815 5.09715048130598 0 0 0
430 1 19.948829817299092 19.60862040524397 6.538427799368026 0 0 0
434 1 1.7670956770728958 1.4852646767387847 10.500393057915385 0 0 0
315 1 2.1819048323550922 3.3778388368665793 8.958389700596456 0 0 0
296 1 3.5601180485241244 1.4498038581599668 8.581161149765142 0 0 0
292 1 0.11724741346964312 1.5265103380920635 8.774931132260992 0 0 0
445 1 -0.12892191783884666 3.325533561937141 10.848612990614432 0 0 0
435 1 3.8410188832175267 -0.07200018060677138 10.379394932526342 0 0 0
447 1 3.5511798933305885 3.3876595261087026 11.14896360487168 0 0 0
505 1 1.592873901471965 -0.13146122432873142 12.114019022864266 0 0 0
300 1 7.070544694581679 1.386276490101302 8.664424265699688 0 0 0
319 1 5.026328559188644 3.213170238280238 8.367461098788018 0 0 0
436 1 5.24463969554469 1.6559987804902427 10.68617937454941 0 0 0
449 1 6.784090469544315 3.2811459421616425 10.15339738017578 0 0 0
437 1 7.094648997195224 -0.19770416633565588 10.110442915509573 0 0 0
438 1 8.776078946574591 1.681905371642072 10.404378500525501 0 0 0
304 1 10.83637540724811 1.6818698407324835 8.544712356346636 0 0 0
451 1 10.700354621507632 3.394840959080008 10.458858909254847 0 0 0
323 1 9.068016469608827 3.274630287452416 8.316673517761664 0 0 0
327 1 12.457425677375657 3.5286754765562285 8.773750707555221 0 0 0
440 1 12.422240681980353 1.691005804136445 10.521824179118111 0 0 0
303 1 12.587153734968835 -0.03081549175209375 8.869408106830178 0 0 0
512 1 10.72165468623021 1.7586646727164068 12.051453339052271 0 0 0
441 1 14.262361431410419 -0.1342729737634727 10.561354524877197 0 0 0
308 1 14.082407703048066 1.825056337728273 8.591337669526812 0 0 0
453 1 14.191102292065722 3.4667002513816016 10.45740410130469 0 0 0
442 1 16.041944552462724 1.8833467590886124 10.815635020728934 0 0 0
331 1 16.239764607820348 3.480835200648897 8.795928463640408 0 0 0
443 1 18.011273233544124 -0.18713528188648354 10.72379405551294 0 0 0
312 1 17.944150309325053 1.6988045041320576 8.96663987099987 0 0 0
335 1 20.10433035871749 3.4407590315568566 9.174092730696566 0 0 0
444 1 19.83605679800852 1.042058281333753 10.439781194585322 0 0 0
455 1 17.9474201086419 3.340708807253476 10.583224389196184 0 0 0
506 1 21.45044664494916 1.376496637259311 12.083698733351586 -1 0 0
320 1 3.7971761867176426 5.204163309127391 8.884343531776693 0 0 0
339 1 1.8266147732261984 7.371714712043479 8.796253900225809 0 0 0
446 1 1.7184996665724939 5.167806701469604 10.581484846982814 0 0 0
459 1 3.2644867821979386 7.124772295955273 10.635545744619712 0 0 0
457 1 0.204839609638663 7.063257017788225 10.980137071983023 0 0 0
522 1 7.072536490191121 5.230596247956747 11.999259732910895 0 0 0
324 1 6.942200543447544 4.965326057057053 8.63932342544169 0 0 0
343 1 5.56261784774235 7.052473566742417 8.74752927283419 0 0 0
448 1 4.953360332337994 5.232316951891485 10.647536296587662 0 0 0
461 1 7.027221286136645 7.058341838630329 10.490193836258971 0 0 0
347 1 8.43729616398953 6.717870349101335 8.540944052736501 0 0 0
535 1 12.38633666747207 7.197275354812302 12.084764325332486 0 0 0
450 1 8.762564151102897 4.897768641901749 10.28832307826485 0 0 0
328 1 10.655872637840812 5.035428269884569 8.421331066036695 0 0 0
463 1 10.319166875249158 6.901829700038221 10.249320884094713 0 0 0
452 1 12.349233893876955 5.239512967869892 10.406220681842667 0 0 0
351 1 12.433531640028836 7.131297517733891 8.559462420776727 0 0 0
533 1 8.88996559040968 7.019941484850297 11.997979199575969 0 0 0
332 1 14.272343423788865 5.142626472865152 8.69810870510668 0 0 0
465 1 14.184570817692803 7.342700654898666 10.572736660925894 0 0 0
355 1 15.839766471972895 6.999858506453056 8.31488589201203 0 0 0
454 1 15.809841687022816 5.2191632558565 10.3339048564258 0 0 0
316 1 21.440647338378295 5.13402431526965 9.233284808967746 -1 0 0
336 1 17.95108277454058 5.4116331975078795 8.65778911096681 0 0 0
467 1 17.799797420557653 6.853056937266388 10.647016761430374 0 0 0
359 1 20.054134640171526 7.029443194833258 8.728947533350873 0 0 0
456 1 19.59027721835394 4.922884787029602 10.73670581449954 0 0 0
340 1 -0.09699034819846565 9.00345056294146 8.916326596111192 0 0 0
344 1 3.757271176680445 8.691065373464703 9.093823952146824 0 0 0
458 1 1.9325948547901084 9.022540527686823 10.751853313956637 0 0 0
363 1 2.091177777188124 10.522491567922827 9.04565101993431 0 0 0
471 1 3.636078289470124 10.817598811472081 10.61467665787517 0 0 0
470 1 1.8837087263879213 12.588051040040902 10.83379975579501 0 0 0
368 1 3.7622094255561387 12.316392909510371 8.948787297008241 0 0 0
469 1 -0.1621641630397321 10.707595883972985 10.627095994423351 0 0 0
460 1 5.260135319560128 9.093984107829368 10.775288473395232 0 0 0
348 1 7.064619245630632 8.754744331847322 8.808416317181612 0 0 0
367 1 5.422286762033891 10.55433066364016 8.705864266499075 0 0 0
473 1 7.1454676648419175 10.773666695868169 10.54221040187212 0 0 0
474 1 9.026132056064949 12.72170021554062 10.630680771989601 0 0 0
371 1 9.104531159595762 10.734208566450357 8.714949137155655 0 0 0
352 1 10.66146957342244 8.804484837100263 8.452240608412964 0 0 0
462 1 9.23001972920257 8.992989322109837 10.165238587740312 0 0 0
475 1 10.823769871848297 10.851548224269669 10.42232235137387 0 0 0
376 1 10.729490552179673 12.369735031855386 8.658283146289358 0 0 0
464 1 12.253505992348696 8.72467143759004 10.40159423304805 0 0 0
476 1 12.694794610590904 12.469472997318913 10.639711102871694 0 0 0
356 1 14.486696687429868 8.771543642963445 8.821129859715633 0 0 0
466 1 16.266523092688033 8.55463898756439 10.48313047635495 0 0 0
375 1 12.862245806950183 10.406844128037381 8.315304026509198 0 0 0
477 1 14.562494455505837 10.489173190111018 10.318452323170165 0 0 0
379 1 16.474987449517272 10.4205417525431 8.956188274495535 0 0 0
380 1 14.830870777758053 12.41824453467849 8.395399182055623 0 0 0
478 1 16.209872634776467 12.28817135678688 10.56940478939127 0 0 0
364 1 21.180950845460327 12.013126010911463 8.633775481466449 -1 0 0
360 1 18.11097249847186 8.658600964440685 8.868078541443206 0 0 0
480 1 19.896770660600595 12.481364162943942 10.804380112048824 0 0 0
468 1 19.70474651390036 8.536953504824286 10.870751185096793 0 0 0
383 1 19.7219120880064 10.409675680721687 9.386495822121166 0 0 0
479 1 18.177182612026236 10.412019599104354 10.760279532288815 0 0 0
384 1 18.397555820824714 12.34925524890048 8.468325269488494 0 0 0
481 1 -0.07324777816745892 14.061679601394612 10.473724625817628 0 0 0
387 1 2.1704692662647203 14.214726966944651 9.042489504580606 0 0 0