LAMMPS data file via write_data, version 29 Oct 2020, timestep = 200000

2160 atoms
1 atom types

0.22636148265826428 21.03763851734196 xlo xhi
0.22636148265826428 21.03763851734196 ylo yhi
2.9213033493520832 63.12927008184003 zlo zhi

Masses

1 58.933

Atoms # atomic

8 1 2.2976216250482047 2.4859033439104534 5.031636107721397 0 0 0
7 1 4.192637336571947 0.9801486096514133 5.314252435475744 0 0 0
3 1 2.9208050162831634 0.997703018355819 3.203356035996494 0 0 0
27 1 0.9442258140520854 4.256469452936537 5.281327446531101 0 0 0
31 1 4.197150039739203 4.0056398756171365 5.21498368723443 0 0 0
2 1 4.401020174062813 2.749798899211212 3.165799896076988 0 0 0
12 1 6.283335136332349 2.4624378311263575 5.345877288854174 0 0 0
1134 1 5.869481927755506 0.6646814490979907 3.342550699202686 0 1 0
11 1 8.327371838226192 0.9169097885417983 5.342087211518942 0 0 0
1609 1 6.1847929659779295 4.226887100079219 3.2407750954052768 -1 1 1
9 1 7.976862307550686 2.407096215410078 3.4103351318635213 0 0 0
35 1 8.53454046655698 3.9119442015634056 5.18994157148099 0 0 0
16 1 10.438125066865545 2.2918619782383054 5.504587871955501 0 0 0
34 1 11.840670073891582 2.0557481361789103 3.516961144861357 0 0 0
13 1 9.817563451955793 0.5865534636653974 3.099403322550903 0 0 0
39 1 12.275336318313396 3.822737470037774 5.3588974239760905 0 0 0
57 1 10.358407757201979 3.924816469334564 3.4724545369169957 0 0 0
15 1 11.731455046417778 0.29293370251842693 5.450983205656646 0 0 0
20 1 13.67975935199187 2.1878091207014667 5.343041947707583 0 0 0
24 1 15.602635385593953 4.0861609277829105 6.176230856494776 0 0 0
138 1 15.601230299167796 1.5120739097231877 3.338880578840005 0 1 0
41 1 14.422929627697872 3.517385963043367 3.3983727679482607 0 0 0
14 1 13.537563771692003 0.4890464539729245 3.4324467244590022 0 0 0
19 1 15.359933578369546 0.5765129472634472 5.489069636543355 0 0 0
4 1 20.920919019311704 1.4753144119832504 5.02530097868315 -1 0 0
23 1 17.303068718834623 2.1257602193173053 5.248510170978628 0 0 0
47 1 19.612505764219286 3.2013250810702343 5.434392468869886 0 0 0
5 1 19.61861851203576 1.4600972722130998 3.1304502599614716 -1 0 0
46 1 20.136541084334695 4.088295286104598 3.067040660623556 0 0 0
142 1 17.478668214812664 0.48389404649189455 3.7193654593026144 0 1 0
29 1 3.103825612400027 4.6037225151044305 3.0876181495138715 0 0 0
32 1 2.7192301281214175 5.835079170204694 5.429934180345803 0 0 0
51 1 0.9636300645742824 7.2601818041234365 5.470946854711789 0 0 0
1 1 0.9782708682768089 6.003339561272368 3.304106082627153 0 0 0
53 1 2.6657591940956853 7.449051393939501 3.4973510741442 0 0 0
55 1 4.552758982809696 7.589690649873871 5.813414980397994 0 0 0
33 1 6.416374663110999 5.33513454242668 5.494456035786186 0 0 0
1752 1 6.513799547439401 7.448662226020376 3.3994387640912245 0 0 1
1475 1 8.528570489612072 5.621573519708483 3.4711141527014986 0 0 0
30 1 4.838058969189602 6.047981261318401 3.7994628946068767 0 0 0
36 1 8.339272098501747 6.938926223581051 5.3182736963099595 0 0 0
40 1 10.417423059102045 5.701260454828869 4.96518892780211 0 0 0
59 1 10.829451835073927 6.949770280894283 3.028377524381675 0 0 0
38 1 12.080949211413252 7.1377128376712715 5.108985876713497 0 0 0
1555 1 12.460203327424109 4.916630657264614 3.3056119738246617 0 0 1
42 1 16.08407170219904 5.4023554587251645 4.162172822093456 0 0 0
43 1 13.742000136126228 5.457070302931851 5.54358446764867 0 0 0
71 1 16.408965744233313 6.951412240517118 5.871886349804086 0 0 0
1365 1 14.09561954778931 6.391059171066449 3.1392769520293293 -1 0 0
68 1 14.200069479727214 7.965064039730655 5.20955102369523 0 0 0
48 1 17.775147195448497 4.699491304217021 5.38732519097567 0 0 0
28 1 19.958345382574677 5.771790231027437 5.22487686393101 -1 0 0
52 1 18.602750416647545 8.022053306791049 5.680696395027611 -1 0 0
49 1 18.58885122660918 6.110933334475898 3.170554328338705 -1 0 0
26 1 20.216532241737426 8.017203837554172 3.639405665659564 -1 0 0
56 1 3.0353990529867563 9.148172746249122 5.295052893078172 0 0 0
75 1 1.6273864169566552 11.14663447726162 5.040020133438025 0 0 0
1523 1 1.2571428523588315 9.641691336995919 3.312522790596359 1 0 1
97 1 3.5560510828189495 11.1205771207666 3.651886715880239 0 0 0
1606 1 1.1595017318240162 12.500567261427811 2.9818846702117368 1 0 1
60 1 6.609366270106347 8.984028152489078 5.087520516192716 0 0 0
74 1 4.680952915788301 9.169579913195467 3.6023690518997107 0 0 0
81 1 5.110528504793929 11.151892619983613 5.4390095816847746 0 0 0
83 1 7.127691516075129 12.046723629371638 5.59452458488343 0 0 0
78 1 5.433418593362952 12.618393933072118 3.3327745018860906 0 0 0
54 1 6.8086002213291135 10.81193872391801 3.2603428875948595 0 0 0
58 1 8.535127449461884 8.943078630676636 3.4063983633579955 0 0 0
44 1 10.479291761205868 8.573940989441247 4.988013300903743 0 0 0
1337 1 9.124438205125944 11.803506253109006 3.425099943505509 1 -1 0
64 1 8.899007066907354 10.267753691098287 5.4093932328597205 0 0 0
87 1 10.9862187418078 11.372368773981929 5.455359169814859 0 0 0
85 1 11.028199986522255 10.049845285134097 3.21410874533836 0 0 0
63 1 12.59325360106603 9.497352575973707 5.247125518061461 0 0 0
61 1 13.12532281068521 8.640397910799699 3.0598880102193675 0 0 0
62 1 13.053735588553312 11.268563625793442 3.306885386285262 0 0 0
91 1 14.616486404553113 10.809919714581005 5.0665678083665515 0 0 0
65 1 15.209271987121445 9.480471231803234 3.142157447918091 0 0 0
72 1 16.57309103808482 9.411197201694325 5.718380556003612 0 0 0
93 1 16.685215939066744 11.347678795508578 3.6996474061365534 0 0 0
92 1 13.391085906630613 12.526884315130081 5.428127605762214 0 0 0
234 1 15.087739309254161 12.522878791899563 6.875061542001104 0 0 0
1191 1 19.975751190569028 10.935589581739801 3.516608368184596 0 -1 0
73 1 20.409166870460865 9.677038688238193 5.578536174790885 -1 0 0
95 1 18.490656850871865 11.162198980794159 5.394348478766123 0 0 0
1795 1 17.97771530088501 9.298295097314078 3.7329883911902773 1 0 1
76 1 20.440938278077226 12.511134913585897 5.400560849805869 -1 0 0
79 1 3.5156099650118406 12.809849729427507 5.535325782235969 0 0 0
99 1 1.4317138980330457 14.193848323981317 5.129784703541316 0 0 0
1133 1 3.1417060555687333 13.943107753473663 3.3435643926629854 0 0 0
80 1 1.432724380369878 16.069054905436154 3.4757790422635306 0 0 0
245 1 3.5094295606037 15.41641716814496 5.32155890710621 0 0 0
84 1 5.588036200875 13.75657403403915 5.737876407804219 0 0 0
107 1 7.60353198801251 15.09306267223995 5.679786488656578 0 0 0
82 1 7.5037738002112455 13.608185391797392 3.5873322210922787 0 0 0
1225 1 5.36223482208523 15.22282105280787 3.3940997257512877 0 -1 0
129 1 7.564379980445294 16.275283028284484 3.682463596021234 0 0 0
108 1 5.530815595893499 16.78595860260868 5.366747744139813 0 0 0
88 1 9.239577744216174 13.020195500845618 5.390225581472038 0 0 0
111 1 11.377007765322475 14.342492726688052 5.454473310292572 0 0 0
110 1 9.437048384748127 14.825373985965635 4.1507531979340095 0 0 0
106 1 9.822438206009878 16.528717720825604 5.508581104903126 0 0 0
135 1 11.36284987775067 16.079056417884324 3.4894974507093317 0 0 0
86 1 11.386722033532704 12.99177155587295 3.397249280636828 0 0 0
89 1 15.051602565176706 12.990426522745802 3.8140325016532133 0 0 0
1530 1 13.240716343708781 14.507882084167788 3.5852652349163208 0 0 1
116 1 13.096428372780291 16.32612811471794 5.454166845865979 0 0 0
115 1 14.671016826640598 14.551620566552806 5.3852064782764035 0 0 0
1861 1 15.135293463259735 16.179379287789292 3.614776091502687 0 0 1
120 1 16.834971428423344 15.81003042398712 5.2311498492246145 0 0 0
117 1 16.823900838773433 14.66240845042596 3.279465591628914 0 0 0
94 1 18.46098775421047 12.845076530752172 3.193163270637622 0 0 0
96 1 17.181937582440654 13.14090588134283 5.195920498802668 0 0 0
100 1 20.659993529582206 15.760904209926345 5.827985625895202 -1 0 0
118 1 20.525959849221266 14.367950904430272 3.2289874959997444 0 0 0
119 1 19.12830335451411 14.378427354777873 5.1599428998754515 0 0 0
121 1 18.92658504166085 16.371309805255216 3.9072785713940883 -1 0 0
105 1 4.235115284755033 17.359276669553637 3.4755401611063426 0 0 0
102 1 2.0363016400569762 17.541743011968713 5.256166299874247 0 0 0
128 1 2.3833164107070286 20.202330345595193 4.935824338045254 0 0 0
2033 1 2.212507091639405 18.542228881564704 3.1613219673766926 0 0 1
127 1 4.322732939459193 18.95934664925283 5.701103546758695 0 0 0
6 1 4.122746120688204 19.868635164521955 2.9460380468478133 0 -1 0
22 1 0.47717707019925 20.26797809169581 3.1994234780815427 1 -1 0
269 1 0.2719159165893714 19.252515793121844 5.636499232622062 0 0 0
132 1 6.45576936683142 20.539412192493636 5.329935380484685 0 0 0
1137 1 8.091222705250084 19.8737544868334 3.3195638655080018 -1 -1 0
130 1 7.642064883272071 18.3485306331373 5.124608239650365 0 0 0
2042 1 6.041352744908284 18.35503541636703 3.424675380800254 -1 -1 1
136 1 9.762768966189988 19.951459814591907 5.106436062478451 0 0 0
112 1 11.48550069649311 18.22721097242843 5.649030030532838 0 0 0
133 1 11.523496672594646 19.747430114186542 3.5461780682622446 0 0 0
1809 1 9.604483893727219 17.899406964198427 3.3911813728284255 0 0 1
140 1 13.454541977898183 19.825074395921078 5.926949573467081 0 0 0
139 1 14.780680718105168 17.974581522923927 4.925768902237987 0 0 0
17 1 15.235626719600376 19.893139529729837 3.6422465698977478 0 -1 0
137 1 13.138996512573982 17.894596944453475 3.177847380929479 0 0 0
125 1 20.706211419078898 17.818712931679684 3.5804184238451593 -1 0 0
144 1 16.92263985191819 19.488214190122477 5.0852213040215215 0 0 0
114 1 17.04138122401325 17.669157489875857 3.00146732089581 0 0 0
266 1 19.26508367859652 20.804240393809845 5.519157677395347 -1 0 0
286 1 18.94258745927739 17.97182872725042 5.6752553914877435 0 0 0
123 1 18.82823689627009 19.214770077670316 3.576423504949571 -1 0 0
149 1 2.5169277206285625 1.1884573907980276 7.060668286931605 0 0 0
146 1 0.5361823514013871 2.8308972638661536 7.254921376821608 0 0 0
152 1 2.567191685522875 2.741272562099275 8.940862650383714 0 0 0
147 1 0.360704447231311 1.4784310637443967 9.62958021685466 0 0 0
173 1 2.3778797501401274 4.316667091645424 7.167213989882378 0 0 0
150 1 4.4821314304210285 2.3245906239663903 7.1025089590624955 0 0 0
151 1 4.480619677108549 1.1190974275226075 9.281816804540343 0 0 0
153 1 6.714954634912144 1.1820369070828192 7.337659779904874 0 0 0
156 1 6.726582051899536 2.691887442416526 9.050313248964454 0 0 0
177 1 6.313458192200701 4.080156307496685 7.311091130005038 0 0 0
274 1 8.249047529590024 1.0090719613240022 9.169836575592843 0 1 0
175 1 4.564269996752502 3.9930849935207076 9.218569472001857 0 0 0
157 1 8.655010370156742 2.883304734525647 7.503576987958334 0 0 0
179 1 8.645487091518454 4.354243711670632 9.723986000173031 0 0 0
158 1 11.692613267530868 2.596262695681278 7.3926418261802125 0 0 0
160 1 10.162503505218499 2.718087322113858 9.287902939314204 0 0 0
159 1 11.632731263528818 0.6558275442542454 9.131655996672144 0 0 0
278 1 10.008545247202433 0.6820864474380506 7.415933441735686 0 1 0
185 1 13.725445166794382 4.074864409551131 7.7182416791823645 0 0 0
162 1 15.205743122927572 2.1303631936152305 7.272461235907229 0 0 0
164 1 13.628598419774297 2.3583422184965075 9.428858015937246 0 0 0
187 1 15.910420729832701 3.3701706174467128 9.40594997743993 0 0 0
163 1 15.400351145235987 0.7226204726157883 9.319821157649155 0 0 0
161 1 13.161826639063378 0.8668208655565017 7.533834629396932 0 0 0
166 1 19.3187832172352 1.6082707247076027 7.448174586267862 0 0 0
189 1 17.495865738888128 3.6534464687470485 7.542800846951121 0 0 0
148 1 19.45921589755146 3.1722085283124506 9.320910580264952 -1 0 0
168 1 17.47835579917581 1.6406968824125432 9.106455945841567 0 0 0
171 1 0.7076760578646895 4.494958159220132 9.16196768561177 0 0 0
197 1 2.7460178611264494 7.42831748979233 7.19973072188362 0 0 0
170 1 1.0273057879225038 6.171365006979336 7.699358551892952 0 0 0
176 1 2.650504878045222 5.576290360511646 9.691927883113186 0 0 0
195 1 1.0521067779124194 7.893634445784344 9.793697295240223 0 0 0
174 1 4.240368310060144 5.6484325420698305 7.587592515296021 0 0 0
199 1 4.067873243243321 7.471082507299516 9.197569541035008 0 0 0
178 1 6.378986287615262 7.043468563181029 7.20337396729203 0 0 0
180 1 6.2465562417425184 6.251857799752792 9.442875395127768 0 0 0
181 1 8.194281649338288 5.463168950365005 7.33672205619536 0 0 0
203 1 8.341701810794191 7.62992801726674 9.539114481788403 0 0 0
154 1 10.302029756227956 4.408486527139272 7.238148595969075 0 0 0
183 1 12.029548325317748 4.396314460520851 9.307422355134449 0 0 0
182 1 12.17448249329502 6.059089211035255 7.573183264824355 0 0 0
205 1 10.023268859600874 7.1083553772586 7.140125709711976 0 0 0
184 1 10.291991123505072 6.332029847001693 9.495251427361989 0 0 0
207 1 12.54660031827066 7.465683958434102 9.599716026240653 0 0 0
209 1 12.173344949701713 8.51019537391944 7.404766204336279 0 0 0
186 1 16.142371732801728 5.557953481255732 7.850066110725327 0 0 0
67 1 14.355906057308438 7.326805457899722 7.614001088523318 0 0 0
188 1 14.07091796704116 5.685128941018081 9.618559430804833 0 0 0
192 1 16.37899302109105 7.096914406665918 9.72684148483393 0 0 0
169 1 19.955094135305345 4.99127341963996 7.37684235013022 -1 0 0
191 1 17.785262903111096 5.13846420959662 9.527901393360867 0 0 0
193 1 19.951034681758003 7.603302009802319 7.611250267805932 -1 0 0
190 1 17.85255906519287 7.050558572169803 7.712792433023903 0 0 0
172 1 19.78576878758497 6.425221202378316 9.628092456201987 -1 0 0
215 1 18.615489703493644 8.476888177436328 9.702527154652355 0 0 0
200 1 3.0269664594714967 9.282230929610536 9.24584885002314 0 0 0
221 1 3.0248850459274883 10.688644078251313 7.278182634843661 0 0 0
194 1 1.16317660735077 9.173602491344013 7.453584083372527 0 0 0
219 1 1.4994037584582363 11.197536156330377 9.557032892157512 0 0 0
224 1 3.5390595512780187 12.553477105583024 9.244241068950888 0 0 0
198 1 4.879878288414156 9.296925322499296 7.437675407660687 0 0 0
204 1 6.346961326982411 8.891535144784473 9.343065355173916 0 0 0
223 1 4.969064250674449 10.650395140119205 9.264854797383817 0 0 0
202 1 7.005043250393471 10.358256543106437 7.453477064982068 0 0 0
225 1 5.582243693964308 12.359095619076937 7.621781308138758 0 0 0
228 1 7.338331651804068 12.143710236574732 9.441339168481665 0 0 0
201 1 8.301924297477367 8.608572253633714 7.3452183242545965 0 0 0
208 1 10.47348082872172 8.68153188910347 9.218664530033132 0 0 0
206 1 10.481459381935434 10.296477300563554 7.448874417144676 0 0 0
227 1 8.674272961015445 10.221734227432961 9.507638807027666 0 0 0
229 1 8.75370968957153 11.744295134776014 7.230508107460962 0 0 0
231 1 10.609884325480628 11.678425975719069 9.421861989353502 0 0 0
212 1 12.349210567659371 10.212924392300286 9.119530382743436 0 0 0
213 1 16.7045590474266 8.760561759674102 7.942367990923972 0 0 0
211 1 14.483913926042963 8.722654681871127 9.689640035166839 0 0 0
210 1 14.758061371559744 9.734784369662155 7.252865976606193 0 0 0
233 1 12.779264025956017 11.225173986781545 7.204998836207866 0 0 0
235 1 14.861937678721347 11.16756621520894 9.376201171694387 0 0 0
236 1 13.417041719545066 12.638826291845021 9.052761610136638 0 0 0
240 1 16.756668927251816 12.58158220529118 9.201177600272395 0 0 0
216 1 17.055915451419587 10.107311780898586 9.677450256114067 0 0 0
237 1 16.98011685435295 11.346031804446529 7.434740058336726 0 0 0
214 1 18.74363224262936 9.733530816305688 7.48391705575222 0 0 0
196 1 20.55479111568109 9.841600071309497 9.220302483669887 -1 0 0
217 1 20.826262603291873 11.488457404296954 7.52442049976405 -1 0 0
239 1 18.847298805360417 11.199391968595123 9.05565279373901 0 0 0
222 1 3.669707419960698 14.09287067169107 7.543575825746125 0 0 0
218 1 1.920518188564879 12.924485374883092 7.400998969389125 0 0 0
242 1 2.0236947733110116 15.872101091146654 7.061138975209068 0 0 0
243 1 1.9159212690920349 14.382587003675349 9.404392797786805 0 0 0
248 1 4.10085145432196 15.989274205107234 9.519617802668638 0 0 0
226 1 7.45517826888309 13.606342916281882 7.529478699787485 0 0 0
249 1 5.753977643218719 15.22261719493322 7.574939620357257 0 0 0
247 1 5.454751173756999 14.065865067847708 9.51200053331561 0 0 0
251 1 7.461869242251286 15.215052074458459 9.365946012607019 0 0 0
250 1 7.865473347429137 16.811922766522592 7.127267327621356 0 0 0
232 1 9.038608384907937 13.696598178302862 9.403186700426177 0 0 0
230 1 11.02558066332498 13.051605589876129 7.557869222052862 0 0 0
254 1 11.411314726969902 16.533520936425028 7.312212478709667 0 0 0
253 1 9.401199176898354 15.057393309389626 7.457882847476405 0 0 0
255 1 11.574104516670973 14.809416770917561 8.960611086580776 0 0 0
256 1 9.609746357842416 16.367482447425054 9.36950965034589 0 0 0
258 1 15.229903102321487 16.514254432346846 7.320537976768803 0 0 0
257 1 13.317061950233416 14.231546399580619 7.471156337641779 0 0 0
259 1 15.471305435801249 14.668129790269544 9.254384911549352 0 0 0
261 1 16.577347798288677 14.4186480955918 7.52359636535573 0 0 0
260 1 13.501631878381131 16.21198260206101 9.432514120553837 0 0 0
220 1 20.571015211455453 12.718873784871173 9.486007767888228 -1 0 0
244 1 20.38841784788493 15.733054455825622 9.382247765265596 -1 0 0
241 1 20.662426121062893 14.138524421135422 7.473114965242052 -1 0 0
238 1 18.806180384281532 12.72489892473762 7.054646334197784 0 0 0
264 1 17.176969676815922 16.310534024300125 9.232964008600113 0 0 0
262 1 18.532027365837692 15.843777840666583 7.194642850592325 0 0 0
263 1 18.32069030384981 14.528733485606471 9.017049100568212 0 0 0
103 1 4.313103861071944 17.280272930190797 7.052122235583875 0 0 0
246 1 2.3617829470875566 19.024011296481973 7.1995626267682455 0 0 0
267 1 1.7626218927867974 17.316969055444616 9.34904734501275 0 0 0
272 1 2.2131309976932907 20.450307094032418 9.07441874464905 0 0 0
271 1 4.06469245804035 18.586692610156625 9.38679748256017 0 0 0
145 1 0.23452863677986419 20.68968574674731 7.456492664814495 0 -1 0
252 1 5.973896269634289 17.02774744318917 8.997965711073729 0 0 0
270 1 4.512736519168123 20.54382683144057 7.3217949332974905 0 0 0
131 1 8.11657610821391 20.030372780682896 7.061130427082771 0 0 0
273 1 6.3138943879361715 18.727582222828502 7.234340952175873 0 0 0
276 1 6.271865830705593 20.261266116355266 9.177879948384255 0 0 0
275 1 7.961698594668479 18.3673377732827 9.123339999081402 0 0 0
277 1 9.725179918463791 18.42971608788085 7.352814286812986 0 0 0
279 1 11.760351021851301 19.524574019825906 7.805359292907771 0 0 0
280 1 9.88147381881009 20.058928221536313 9.450167036740636 0 0 0
422 1 11.5369889795083 17.55144507139117 9.428173218054363 0 0 0
421 1 9.850462257214067 18.30417906753162 10.884352311995183 0 0 0
282 1 15.017562370824116 20.059904215436624 7.497437220891442 0 0 0
283 1 15.317474658103228 17.858971595950877 9.500925608149828 0 0 0
281 1 13.375413701043698 17.963076975992777 7.361843389729124 0 0 0
284 1 13.324309044174477 19.76926078858665 9.276313772780028 0 0 0
285 1 16.839096965228507 18.07703789830945 6.977905332554105 0 0 0
268 1 20.756560835747727 19.114022712686392 9.362377266247247 -1 0 0
143 1 20.964237166737483 17.631649584310424 7.435801775617727 0 0 0
165 1 17.33766969198343 21.008825824936004 7.042249694925259 0 -1 0
167 1 19.189429292289063 20.838768767756175 9.465172282741854 0 -1 0
288 1 17.059008324126275 19.08673459525008 9.292949570957067 0 0 0
265 1 19.110077024458242 19.394896149251984 7.411749626335137 -1 0 0
287 1 19.011166695023093 17.590301306395254 9.306754403093297 0 0 0
293 1 2.6147035789743662 1.5590265349539858 11.138554336270188 0 0 0
290 1 0.6684687876714492 2.8723830152685843 11.463552545445165 0 0 0
296 1 2.5669429625446534 2.8568610149771523 13.423298603902065 0 0 0
292 1 0.27355631978170414 1.6937015937691637 13.381074024219565 0 0 0
295 1 4.117580359773841 0.9128321397103084 13.067373701106309 0 0 0
294 1 4.81676257216455 2.849804320273641 11.247268475881405 0 0 0
297 1 6.508453598616782 0.9945940235361079 11.040974753444276 0 0 0
300 1 6.630484109595759 2.874691922704516 13.366210808795406 0 0 0
298 1 8.280186015909905 2.4948634168061288 11.56661371183606 0 0 0
420 1 8.08100047479305 1.1182040845022962 13.392244825021448 0 1 0
323 1 8.584566380666454 3.911215724313775 13.703136666065717 0 0 0
299 1 10.075990344998205 2.260082229697118 13.117336780139143 0 0 0
327 1 12.05620839675846 3.7798201635125745 13.40931476023558 0 0 0
325 1 10.399944975613584 4.0595586707155995 11.55550332535624 0 0 0
304 1 11.485658300445648 0.6272889000503923 13.040771588655979 0 0 0
301 1 10.218221285013147 0.9673026557875559 11.10292719054448 0 0 0
302 1 11.975778306430618 2.546384369298365 11.352846508013517 0 0 0
306 1 16.036569664032633 2.1371160633780635 11.590306965511571 0 0 0
329 1 14.097543317489308 3.510789640524514 11.641154474671758 0 0 0
308 1 13.749462041903886 1.9613219208397503 13.615754852312438 0 0 0
331 1 15.717330346348476 3.599596442260424 13.494986329281735 0 0 0
305 1 13.887721887057603 0.6791516629530738 11.095651165538165 0 0 0
307 1 15.90295710487061 0.3976274678893038 13.39834413406201 0 0 0
309 1 17.291796917357267 0.3563705337303419 11.375795488972827 0 0 0
333 1 17.645245133674308 3.612519915909233 11.285305395470782 0 0 0
310 1 19.499861359556633 1.5035608120467558 11.601915699972675 0 0 0
312 1 17.550699759308536 2.1313234995885644 13.478098211074538 0 0 0
335 1 19.71850347859509 3.5704076549315227 13.639587838875501 0 0 0
317 1 2.589927064103295 4.517718495119198 11.701341474565671 0 0 0
315 1 1.1105825328817118 4.623248049347063 13.393695019869444 0 0 0
341 1 2.998319652987592 7.879476465252161 11.721977898538537 0 0 0
314 1 0.9320677231609148 6.258990016713225 11.335223696150392 0 0 0
320 1 2.8410670762114143 6.240828427030898 13.354731622753672 0 0 0
339 1 1.1957205378136464 7.827127001855894 13.377908040156825 0 0 0
321 1 6.5721343814933375 4.4257009895462005 11.361112440920003 0 0 0
345 1 6.390550278503535 7.29480586240147 11.49361233210627 0 0 0
319 1 4.743897686356102 4.5958242837171 13.352954699104904 0 0 0
318 1 4.553856532287299 5.851494325508323 11.314288568814483 0 0 0
343 1 4.747321001602508 7.4958360674933076 13.465296517629062 0 0 0
324 1 7.004144596301236 5.807748546837349 13.721855741308094 0 0 0
347 1 8.472070096750977 7.775480492211957 13.521865454355604 0 0 0
322 1 8.511196921982016 6.0179247844503765 11.532527087251722 0 0 0
349 1 10.394151482841991 7.670882686145069 11.410313131525685 0 0 0
328 1 10.341730195597702 6.001484783102814 13.535933231824703 0 0 0
326 1 12.062108339896023 5.64940592788877 11.757177994463207 0 0 0
351 1 12.494055929335808 6.987163882923668 13.824493553565821 0 0 0
350 1 12.640294333041396 8.233801572049181 11.989945204706098 0 0 0
330 1 15.958465636444314 4.8261493191696845 11.403817714710243 0 0 0
353 1 14.448008324726821 6.988357358550285 11.550079913795695 0 0 0
332 1 14.031465706954927 5.178841700987993 13.273181245288118 0 0 0
355 1 16.387340642594424 6.392905272430447 13.5820396701707 0 0 0
357 1 16.667685320336226 8.246552931132117 11.573599159565749 0 0 0
356 1 14.343853131892196 8.214717391294787 13.958907910933338 0 0 0
313 1 19.614084023611383 4.696561920910821 11.500029535581469 -1 0 0
336 1 17.911066428048578 4.778235931981189 13.346471951127134 0 0 0
334 1 18.090775216304777 6.589603736704069 11.482816359340438 0 0 0
337 1 19.948399054087616 7.745142591618681 11.711842057864345 -1 0 0
316 1 19.968194912689768 5.89021345210517 13.268764622149515 -1 0 0
359 1 18.179467495295924 8.156741676777983 13.564563985483245 0 0 0
338 1 0.8795385180548966 9.552071795191491 11.420502941057189 0 0 0
344 1 2.9799456185305417 9.336407280725705 13.50826049568289 0 0 0
365 1 3.155353584824907 10.99937553396974 11.233916174601072 0 0 0
363 1 1.6582191270629363 11.24283006645935 13.065918130457458 0 0 0
342 1 4.85695035292447 8.991461408095338 11.369797224799061 0 0 0
348 1 6.577198434458827 9.239552583807543 13.062052146356105 0 0 0
369 1 6.771799354229652 10.573246020902555 11.26216806101957 0 0 0
367 1 4.703572189671861 10.951618361505494 13.245027471822281 0 0 0
372 1 6.845634820498243 11.97521082276434 13.244699359661713 0 0 0
366 1 5.2707811891330465 12.093071270456319 11.00950390197989 0 0 0
352 1 10.599054883327108 8.553884987728724 13.640888128653065 0 0 0
346 1 8.609040201534471 8.989703532241823 11.681883638588749 0 0 0
373 1 10.75125572758869 9.99480945593569 11.391571521459998 0 0 0
371 1 8.899790288282416 10.54416245045168 13.447482490272671 0 0 0
370 1 8.915508589273726 11.968401058053631 11.322969113565566 0 0 0
376 1 11.17006363293997 11.303143670190495 13.185411660320003 0 0 0
375 1 12.776934867742805 9.997070629568988 13.673391066472856 0 0 0
377 1 12.956157422694911 11.531988964787578 11.201864311046792 0 0 0
354 1 14.784498034743818 9.463453573269222 11.605226746865336 0 0 0
379 1 14.859400645780413 11.28967985017788 13.406530569691887 0 0 0
360 1 16.415965612809266 9.550520084996915 13.577576747332689 0 0 0
381 1 16.538854745046883 11.431621243106441 11.545629669708921 0 0 0
361 1 20.679364005973866 11.760268132634442 11.770585898681148 -1 0 0
358 1 18.710546179657463 10.003956997550809 11.529309722667165 0 0 0
340 1 20.250706392899353 9.513021451471444 13.494172790661532 -1 0 0
383 1 18.9335719601385 11.344684660914442 13.325197750474054 0 0 0
368 1 3.4283714673888515 13.064375969867433 13.328171118752193 0 0 0
362 1 2.048549509632159 13.011206856492116 11.226899507505784 0 0 0
386 1 1.4979928947901833 16.048422761791866 11.248029044407904 0 0 0
389 1 4.0529940624426235 14.415750948031452 11.215071953708238 0 0 0
387 1 1.517983075948681 14.45087414589995 13.524937357350987 0 0 0
392 1 3.7007711259696494 15.617032808161838 13.332787562833856 0 0 0
390 1 5.861097713331103 15.80491058199621 11.28680080167477 0 0 0
393 1 7.2405036580670945 13.803564221678464 11.26550339650749 0 0 0
391 1 5.686113204448683 14.15868559665614 13.310963018640354 0 0 0
396 1 7.707973218714155 15.52175241148793 13.560236506208359 0 0 0
394 1 8.035900356985238 16.812182874463673 11.052173218310818 0 0 0
397 1 9.266598373934878 15.071380657726694 11.579090625569956 0 0 0
374 1 10.98887454931018 13.048058276683063 11.303019906260465 0 0 0
395 1 8.946744026249407 13.476286227433372 13.434652236183922 0 0 0
399 1 11.02252649849181 14.850924555574045 13.133529048799012 0 0 0
398 1 11.559677532794408 16.500318158133005 11.399659693585981 0 0 0
378 1 14.679266630816668 12.962452424301077 11.077201973296257 0 0 0
384 1 16.596181686543737 12.769481216042255 13.437682934228468 0 0 0
380 1 12.954490643290315 12.856165666816516 13.069857125155067 0 0 0
401 1 12.822047481153458 14.49160606983395 11.004270443471453 0 0 0
402 1 14.904549110889254 16.01489971381538 11.204923054687907 0 0 0
403 1 14.678685451243389 14.207834916463902 13.387684879319055 0 0 0
404 1 13.186595383469317 16.17924024389323 13.433733202617889 0 0 0
405 1 16.5058496945433 14.337879469659581 11.597533487510818 0 0 0
408 1 16.00610515160458 16.255755330198063 13.39963730772911 0 0 0
382 1 18.448318160747135 12.941721049639344 10.970596228712616 0 0 0
364 1 20.516638254623054 13.20452594994489 13.689477629683548 -1 0 0
388 1 20.58149587455285 16.02082822270147 12.973111241437024 -1 0 0
385 1 20.52822559468136 14.351703544446709 11.238257172406945 -1 0 0
406 1 18.604589461409148 15.564317298891472 11.274724048483897 0 0 0
407 1 18.25423511682815 14.668960287541045 13.28896516855106 0 0 0
291 1 2.063205105556068 20.468761838991426 13.304106611343474 0 -1 0
410 1 2.328220888642887 19.097364379393817 11.074564247083337 0 0 0
411 1 1.877715977643489 17.398279196423637 13.411514116911091 0 0 0
413 1 3.842905746626677 17.328138131127503 11.478179020041173 0 0 0
415 1 4.127949682860755 19.3295653997695 12.934907480185876 0 0 0
414 1 4.2036774995615 20.51047878610742 11.017759061725634 0 0 0
557 1 3.9337023764974286 17.62597958676092 14.95616666455726 0 0 0
419 1 5.70687351237097 17.437400316148093 12.949991695063284 0 0 0
417 1 6.070437029180336 18.88869969251448 11.120674254378725 0 0 0
416 1 6.110170246475805 20.321620821672738 13.285801455823705 0 0 0
418 1 7.886002917872923 18.327190399842927 13.24965848011646 0 0 0
155 1 8.247479579054835 20.352897439535298 11.069671644980271 0 -1 0
400 1 9.77493728607035 16.937549362223884 13.204791875518998 0 0 0
423 1 11.58237508176128 18.174173821086434 13.383311067078735 0 0 0
424 1 9.9044559938529 19.69198439795339 13.116017055609515 0 0 0
303 1 11.716537862979623 19.72402962572682 11.189441894898382 0 -1 0
425 1 13.36490075957396 18.07310142638407 11.333629162816093 0 0 0
428 1 13.57665478582586 20.11855983155263 13.081158648699526 0 0 0
426 1 15.635478923427124 19.67594815192372 11.375144979548931 0 0 0
427 1 14.7862572781974 17.913210600364273 13.71927647814076 0 0 0
412 1 20.796484730174527 18.922923770919148 13.32272089156801 -1 0 0
289 1 20.953480796651363 20.44541569277773 11.455227765574627 -1 -1 0
409 1 20.675778927573184 17.779413382399262 11.325946716802319 -1 0 0
311 1 18.927471168290154 20.887238867348813 13.85955289634997 0 -1 0
429 1 16.933406308262185 17.365267221861714 11.496473251610787 0 0 0
432 1 17.198554545477357 19.192111096607988 13.183412772975068 0 0 0
430 1 18.655800435654 19.18446002830227 11.488745643633166 0 0 0
431 1 18.72849879785609 17.256655410341708 13.148013908219077 0 0 0
457 1 1.1731921363035098 3.3163101595108766 15.429404593999678 0 0 0
434 1 2.035591698903575 1.1574757057877145 15.260141922013663 0 0 0
459 1 2.44953286230515 3.341876785039373 17.249670953394286 0 0 0
436 1 0.30917100153237864 1.2916480152102927 17.181453443423724 0 0 0
438 1 4.239437614896494 2.5807318657380627 15.14062422368521 0 0 0
440 1 4.271674634483222 1.0892514152546333 17.058959193467835 0 0 0
578 1 2.192206484373438 1.4419287651668877 18.958124791515612 0 0 0
441 1 6.020080046518279 1.3543404843125915 15.081706415138234 0 0 0
465 1 6.415255757250076 4.172912397123323 15.496433992977572 0 0 0
444 1 6.189909017464555 2.302407540690557 17.570018384514118 0 0 0
443 1 8.214666587472504 0.7175350714313851 17.587906803019955 0 0 0