LAMMPS data file via write_data, version 29 Oct 2020, timestep = 150000

2016 atoms
1 atom types

0.29776965994406446 20.966230340055986 xlo xhi
0.29776965994406446 20.966230340055986 ylo yhi
0.6947958732038195 48.92120412679307 zlo zhi

Masses

1 58.933

Atoms # atomic

43 1 0.3921786568318709 1.7951864907538524 2.3641654424630554 0 0 0
682 1 4.12745816959559 7.291421264550364 1.1866759955342094 0 1 0
1113 1 5.405999321374482 2.667052931944069 5.482421920967625 -4 4 1
1992 1 2.790040162862222 1.560172632633781 1.9911331174185383 2 0 1
312 1 1.2163589876364957 3.936028076560845 2.483403924045734 1 0 0
1834 1 4.695459979581447 20.93203890903729 2.874549820027093 -2 2 1
268 1 3.1561093030638765 4.032122319695544 4.766313886094727 -1 1 0
1090 1 9.73880383893918 9.255525160079719 2.127228059048246 -3 1 1
155 1 5.8362673776350755 20.933491143644027 4.7610822389559235 0 -1 0
403 1 7.525761083058181 2.6481082171763055 4.918057696018408 0 1 0
265 1 8.09543472393307 5.134342182351488 1.1129597777422533 -1 1 0
945 1 6.00159548492481 2.434766445044309 3.2694704835318076 0 1 0
483 1 6.992693330446064 1.1442857055891196 6.575449575126403 0 0 0
214 1 18.00216256413836 15.424532980306449 9.339201603295045 0 -1 0
83 1 3.8477088095005625 17.601374838630555 1.3695717000082928 0 0 0
24 1 10.496050396619193 1.6569522542342963 2.59225430958133 0 0 0
673 1 8.829127133413035 1.0471397802123326 4.8404767752605595 -1 1 0
316 1 11.861522979987814 4.66135413089771 3.503634115905469 0 0 0
922 1 14.07592921262229 1.9973195827904267 1.2692364936013099 0 1 0
309 1 9.402488276691837 3.252316535702076 4.174129157298025 0 0 0
353 1 8.903624307294521 3.165632109956541 1.4661781297298786 0 0 0
119 1 12.786582509074483 2.586237603210849 3.0864059516596956 0 0 0
1938 1 18.157603335266103 17.388361193981687 8.631004868423704 2 1 0
143 1 14.936885294078394 1.5697210492429297 3.4508295026928915 1 1 0
388 1 16.197424612600052 2.841008461027758 2.7686950299915276 -1 1 0
146 1 15.689246418110441 20.35892412443249 1.2034701469532094 -1 -1 0
27 1 17.408125066958277 1.4027374852312007 3.9995510222951545 -1 1 0
1169 1 13.53228574938731 4.402858702825234 4.991676695930312 0 0 0
502 1 18.711111690393963 1.9641237283918074 1.948576252341079 0 1 0
519 1 17.67534458092277 3.877682608713524 1.1599709381688377 -1 0 0
408 1 19.189901518584335 2.663949818049126 4.255709427408395 0 1 0
1386 1 0.9351756659242906 2.8494713591009537 4.362929624060251 1 3 0
1307 1 17.88204876133485 4.288469047566034 3.5387711689615178 -2 0 1
1490 1 19.892944524322054 20.740868007996013 0.9247041534510756 -1 1 1
424 1 19.72093324086807 0.4662712929861669 3.482503465593307 -1 1 0
158 1 2.7464853093108927 7.694511824460099 3.739804507498895 0 0 0
40 1 1.0049915935261513 9.343808087903774 1.1481482192573111 0 0 0
1994 1 3.0848498073730153 9.218994351003895 1.741145757594963 -1 -1 1
115 1 3.043173217978446 5.492800278997699 3.117033351094477 1 1 0
311 1 18.36892148496417 12.741180259388482 1.0288430044612908 0 0 0
144 1 5.241249427839184 4.386128663729402 3.8226871886512717 0 1 0
1300 1 9.765231316125757 4.823435260547628 2.678640439484176 3 3 1
1945 1 5.28058727326552 5.369045779588936 1.8436417717875002 0 -1 1
253 1 3.786756569432598 3.490023579104391 2.2323561877766496 0 1 0
219 1 6.615213292218335 7.488249959010236 1.9143713136136944 -1 0 0
1183 1 8.358833108458953 6.434252344427193 4.490011178604261 -3 -1 1
1583 1 5.146634267713026 8.00802670790417 3.189457824391542 2 2 1
613 1 10.633317468271255 8.110109416127305 12.037185106727456 0 0 0
677 1 10.632693646014799 6.569791214452572 3.7457584242026183 0 1 0
1688 1 9.120138814920557 7.205883371227885 2.253969063488616 -5 -1 1
1545 1 11.536388601705593 8.457211829620672 3.3809148494349133 1 -1 1
606 1 13.422871622876583 6.150178937080531 3.5184938381113633 0 0 0
327 1 2.718950528598581 17.129619960236873 11.439046881434564 1 0 0
229 1 12.14942224019065 6.0045271774282165 5.700520505017949 0 1 0
1148 1 16.64192975224706 5.7163532829847234 2.113674271749516 0 2 1
26 1 15.009744417322521 7.658990444589829 2.898768676256876 -1 0 0
65 1 17.04461286691616 7.240831621699443 3.6528027545407267 0 0 0
58 1 15.687959433913123 7.985587455773164 5.195570290801211 0 0 0
169 1 17.628436395980245 5.94923041012051 5.004978530411667 -1 0 0
1643 1 11.369096651094214 3.179707690592688 1.647855478910373 -1 1 1
701 1 19.859455276729605 4.042759711037677 2.0508970875355335 -1 1 0
85 1 19.055419438260465 6.098629288915362 3.054828133669156 -1 1 0
1396 1 0.5276695107258504 6.180538780853615 3.315581241134359 -1 2 1
201 1 19.571776736243017 6.979884603970257 5.048789523892799 -1 0 0
76 1 17.989645255237292 8.898615211154228 4.6988469981523995 -1 1 0
415 1 0.7195808412836644 7.967798788974559 4.5619260462950795 0 0 0
1513 1 4.610037395230209 11.152337368209942 2.1245425908793028 -1 1 1
127 1 20.402271946741728 8.338457061367018 2.5090473431648688 -1 1 0
244 1 1.28125563034229 9.994735947810316 3.2699687027475486 0 0 0
422 1 2.3217585078448866 13.624268496149481 1.333411607259789 0 1 0
1836 1 1.2658051578624092 11.940441068836881 2.1293906280781396 1 1 1
150 1 6.642679293115297 3.0140982152412845 1.4676664370129695 0 0 0
626 1 6.093867113311215 8.340510911108403 5.150957494557428 0 0 0
277 1 8.346199039433735 1.5245525059007166 2.681053153264739 -1 1 0
331 1 18.98326245966821 6.560114628745231 1.0697081497815242 0 0 0
137 1 9.724409985114729 16.58690690076083 1.0176556673111585 0 0 0
22 1 6.1658824044363865 11.890595451380182 4.138247161458967 0 0 0
59 1 6.1523194813667486 9.792231463512863 2.8157149075624717 0 0 0
182 1 8.009862997099056 8.999630573923474 1.0010698722767708 0 0 0
1 1 13.177230416396531 4.628214662463311 1.5185181312086946 0 0 0
1195 1 12.041840249598133 9.918452897389447 4.688563156652336 -3 -1 1
1224 1 2.6426789013950436 4.938375992985822 0.8971210775904188 -1 2 1
1495 1 9.715162968244883 9.50014188189199 4.475001507032575 -2 0 1
763 1 10.297819428211389 11.102290547396558 2.8693005828540374 0 0 0
1783 1 14.077176968948121 9.960636668392588 4.05576076055881 0 0 1
574 1 13.624096465744133 7.905013984557957 4.722042586046662 0 1 0
261 1 12.292929024137456 10.40697645782247 1.5948726141032803 0 0 0
1506 1 16.00962354977237 11.710349302399445 3.3725299232014363 -4 -3 1
1656 1 12.97509515218317 11.880265665190581 4.029987215987964 0 0 1
186 1 14.224683487885287 11.54510751087049 1.9996024779378359 0 0 0
1288 1 18.99750175043716 15.236530534576099 2.5318271199987867 2 0 1
217 1 20.185844382495077 10.686459002212757 1.4578271215212957 -1 0 0
494 1 16.136989240289594 9.557449824770828 2.7764512933170225 -1 1 0
238 1 18.001535423252562 11.016471560090793 2.4751127817249547 0 1 0
1489 1 18.227452936745465 8.640957052524247 2.419656415553505 -1 1 1
246 1 19.754175824939466 9.783181044980758 3.7346914936084814 -1 0 0
67 1 18.36037611774652 11.309164881774326 4.811050636696379 -1 0 0
1188 1 17.328912237545886 13.459992685733441 3.09451126781708 0 -1 1
1104 1 2.238783696073279 13.742818488133308 3.8507177487637945 -1 0 1
1017 1 4.772141809512606 1.997141180557942 1.0444670688153288 1 1 1
92 1 4.310915839573422 15.370765669780377 1.8004464243318656 0 1 0
1320 1 20.86157303948051 17.012450865057055 3.694103372989435 -2 -2 1
1103 1 1.0652445917263702 15.042167007067352 2.5861399989356837 1 1 1
46 1 2.7596876819544813 16.93920844487878 3.296603059308119 1 -1 0
350 1 7.4862339025101905 16.854268929035705 2.0343851904240964 0 0 0
1374 1 6.812222062343001 12.779640848888514 2.1430093719140055 1 2 1
74 1 4.658867278147883 13.21113417859265 2.7948197935218717 0 0 0
174 1 8.151399176785105 14.93443918330301 3.115600146064855 0 0 0
688 1 6.049344749930061 14.57362373379749 3.6369842477657692 0 0 0
1129 1 8.102582826816489 10.897911150173412 2.2016916692542035 1 -4 1
221 1 9.516730640365301 13.130936883874048 2.406613660694684 -1 0 0
1572 1 12.126104291395485 13.330594366119845 2.09563756945963 -4 0 1
147 1 10.27373489003055 15.10942008224327 2.503740931182427 -1 -1 0
454 1 11.06658613271282 13.691905139696477 4.100364991161573 0 0 0
1114 1 14.874604495950441 13.77318656958726 2.1046184228779428 1 0 1
1051 1 11.84730800364858 16.33771905901382 3.525084244373339 0 -1 1
55 1 12.65938299212847 13.25503712589516 5.660728775490536 -1 0 0
284 1 14.804556618072906 13.414634812308671 4.470405572010575 -1 0 0
1727 1 12.902747678122335 15.514922456285458 1.5408781976017492 -1 4 1
276 1 15.061464813378329 16.14873334542649 1.3101900604586851 -1 0 0
142 1 15.72813886555508 15.502500391412672 3.4066120758738476 0 0 0
267 1 13.316738128273823 14.91783053753715 3.5404609054600775 -1 1 0
871 1 20.279943230120097 16.819180279184664 1.3506287684360485 -1 -2 1
232 1 19.645700527663763 12.52883235882786 3.1853532550818944 0 0 0
351 1 18.63490584598926 17.49053888265321 3.0614858070124833 0 0 0
255 1 17.631429124749772 15.639143794057595 4.2334885322795905 0 0 0
1253 1 16.342927678355707 1.869445678701545 1.0065506565362037 -5 3 1
89 1 3.1768755321218087 19.631302988953912 2.3031472231246 1 0 0
176 1 4.5131140455795205 18.450225861604785 3.8178339474879164 0 0 0
571 1 3.526257276619823 20.463202962938347 4.429240851409842 1 0 0
87 1 1.494476471930782 18.265932400231826 1.5786576258205192 0 0 0
566 1 1.5685030620521303 18.677553645675495 3.6601448024669843 0 0 0
522 1 6.1556798995931326 19.090798837749972 2.2851783631804903 0 0 0
53 1 5.629498144016 16.57758374036652 3.0340301848266633 0 0 0
1085 1 6.333132426527032 18.23467099204975 4.498611718209152 0 -4 1
1655 1 7.190540424241467 16.16588377125234 4.897774213902045 -2 -1 1
461 1 8.699767058614595 19.09613482755455 1.791040649058681 -1 -1 0
694 1 11.481599995252203 10.162814564856939 12.497319753567222 0 0 0
1482 1 13.11152879022098 0.46648181435778924 2.482421371465884 0 0 1
70 1 11.573855919397245 20.296494848119934 1.2091439477246624 1 0 0
1281 1 10.380526467284078 17.74549627558504 2.762566630762159 0 3 1
1357 1 7.515175052618496 19.98700732806676 3.669433673186868 -3 -2 1
585 1 12.279715763632902 18.953200656370818 3.3027177200002122 0 -1 0
252 1 11.559779141970312 17.78215721422245 0.9683562093763414 -1 0 0
1906 1 9.327313708265232 15.976711588485701 4.519419968581265 -2 1 1
120 1 15.799339232872928 19.99568460277294 3.639437077928694 0 0 0
473 1 9.257711970370279 0.5911304830342905 0.9772390196954355 0 1 0
264 1 13.696672256984737 17.103190186861703 2.680461394100338 0 0 0
9 1 13.883334372425473 20.525284347948464 4.630671463346411 -1 -1 0
163 1 14.288652723298092 18.96690657854593 2.57875119812864 0 -1 0
551 1 2.147631888471598 6.5655012358814915 12.217547206584989 1 0 0
1070 1 17.377232266602647 16.404720197940023 1.6515340888714698 -1 2 1
32 1 16.27704582457944 17.71212905076481 2.901338371171825 -1 -1 0
1189 1 17.88189427530827 20.194104316090673 2.527257227963805 -3 1 1
90 1 13.078686934866234 8.116234229986622 2.2039722843453147 0 1 0
77 1 19.498930010608994 19.012041305046523 4.525894284835573 -1 -1 0
1414 1 1.1902471560342107 20.378583835585573 1.72989123285545 -3 4 1
1338 1 20.2693585908074 18.94069876007135 2.394475853069906 -1 1 0
1703 1 11.518591411043687 6.333362811208627 1.9616159733206306 -1 -3 1
816 1 3.7856959351388864 1.9286217836140747 4.017897206821225 0 1 0
196 1 4.180956435090472 3.27021451447315 7.1484023970751345 0 0 0
1297 1 4.700420291711372 0.9357713412990168 6.6802457436550515 2 -1 0
400 1 2.6205233339726433 1.8045344497147418 6.25681125465889 0 1 0
980 1 3.419287932859227 1.271021071884522 8.458351611694319 1 1 0
412 1 1.521184730797049 0.8356272469523873 3.762809302398152 0 1 0
515 1 5.535022801045288 4.967630409556906 5.972249096124821 1 0 0
293 1 4.072528495505654 19.768943237778693 8.076007811509697 0 -2 0
511 1 6.180999388628656 20.263257283117092 8.024931200282376 0 -1 0
444 1 5.371623900932374 1.3109896686183775 9.381348552357005 1 0 0
258 1 6.464261102894689 3.199799352061149 7.549929760929551 0 1 0
485 1 9.079088165759893 20.83288652036164 7.128859476815587 1 0 0
1160 1 9.528679855631726 2.993982729254453 6.532672888008382 -1 2 1
1720 1 10.148363712698927 2.3011372742419693 8.52526024247542 -2 4 0
1993 1 11.035641682646512 1.4305873717174848 6.663173998118579 -2 0 1
1858 1 12.278215353333895 3.7953311978150115 6.900270337788474 0 -1 1
223 1 12.263807698750625 1.6346954765657533 8.995198901405693 -1 1 0
1682 1 9.596180101571573 0.4883331819607153 9.828884033944286 -4 0 0
718 1 13.302018547334882 2.1851883604986924 5.886724172060058 0 1 0
1193 1 15.56260213286597 0.760705837121852 5.7878190422500495 1 3 1
558 1 15.035049409927757 1.6634046565512928 7.896279196975854 0 0 0
553 1 19.44100432991391 20.861925897243175 6.942791476635075 -1 0 0
594 1 15.391842604297604 2.8022270726779923 5.106732615448632 0 0 0
690 1 20.236926321696686 4.808866873054133 4.737622247910051 0 1 0
1630 1 0.45480916365219315 1.4198248581546795 5.946093478063328 -1 3 1
118 1 19.375879136921846 2.760610998136155 6.449445818133267 0 1 0
1731 1 17.622121705814386 1.6823435152819461 6.476348779852132 -5 -1 1
1265 1 0.919470248286605 3.662258665119797 6.235118536994367 -1 -2 1
409 1 3.922557230894495 5.118424611848231 8.481001756994324 0 1 0
102 1 2.8300160413238618 5.738596611027251 6.708196388283782 1 1 0
193 1 1.6836342358924041 5.694263425020312 5.035325403735163 0 0 0
1562 1 20.208390835267764 6.29005217252939 8.61525443479707 -1 2 0
432 1 1.8659714665790836 5.713733290693106 8.758422832133364 0 1 0
148 1 1.9607497714013853 8.13254702625245 6.274922112990275 -1 0 0
16 1 7.5084131694743 4.263696908353996 3.152234266340953 0 0 0
234 1 10.203898482419438 4.848709099837178 5.174253389129334 1 0 0
101 1 7.935459345925857 4.82145758532182 5.9104803332592555 0 1 0
342 1 6.0086817596202 6.274865677888183 4.056022252630759 0 0 0
245 1 5.037767031784428 6.597721358641538 7.376171334032181 0 0 0
149 1 9.640660731741736 6.392866162949423 6.5787415506843026 -1 0 0
674 1 5.40096938669317 6.750410601945543 9.71511496567781 0 1 0
840 1 8.319071268695604 3.8284402150115593 8.626646276047449 0 1 0
536 1 7.735474633149429 8.221357579541362 3.6447633059835844 -1 0 0
2013 1 11.494752824807145 2.8753500020458347 5.02950070650083 -2 0 1
104 1 11.162490162794816 7.854253602293854 5.545203178419172 0 1 0
531 1 10.574526534490404 4.690020581170111 7.843491809183502 0 0 0
377 1 13.046375056621486 5.607346838558828 8.703186848724163 0 1 0
298 1 11.407367151921546 7.16634348812794 7.700471786413001 0 0 0
1318 1 16.269173780084493 3.4356170979317735 7.567078441402655 2 4 1
251 1 14.504360395424852 4.683042050071384 6.80805244665942 0 0 0
1773 1 16.030450502111634 6.080439230639807 6.512639777350507 1 1 1
1027 1 15.804302319675376 5.194230982733137 4.448059471912188 -1 0 1
50 1 17.171855358603786 5.376247553342292 8.065126384676226 -1 0 0
436 1 15.155584383179113 5.571627429156737 8.988462982871075 -1 0 0
1861 1 20.40742578522343 4.308359270936173 7.801315108343422 0 -5 1
570 1 18.32756347431406 7.225548113748301 8.353730377103194 -1 1 0
222 1 17.343835678132848 3.7116835424952677 5.5738903588076 -1 0 0
203 1 0.47289653181694496 6.282976978495003 6.594344530028645 0 0 0
1423 1 18.789814114512886 5.446806567527537 6.652431483570066 0 5 1
905 1 19.667440721794996 9.18114545311369 6.208164672918724 1 0 0
1296 1 4.048445252055407 6.317627224815255 5.016598482031555 -2 2 0
372 1 20.166091010399064 11.662185969096473 6.008548505043626 0 0 0
371 1 1.0856949338485995 10.194224824732789 5.936085769764295 0 0 0
672 1 1.0471209801554529 11.763581816589408 4.6312523042644695 1 0 0
374 1 2.9043203118855443 9.452227287203943 5.078411237690283 0 0 0
413 1 2.4843489920290347 9.71432733445717 7.924541894589199 0 1 0
15 1 2.970469764706001 11.530053868176093 6.088095417095074 0 -1 0
789 1 1.1526979064235494 12.460053457411007 7.403880288655009 1 0 0
635 1 4.327299301273711 8.463908920674548 6.42102842796052 0 0 0
152 1 6.6864919144813655 11.645332157959384 6.1421640381063165 0 0 0
51 1 7.075022625028518 6.498237978775695 6.583370291030819 -1 0 0
912 1 4.810284415726845 10.654390461460602 7.598676876738337 0 0 0
1409 1 4.9885116860184695 10.320924786422287 4.61835508544678 0 1 1
438 1 7.883041335724925 10.397056758121996 8.38061563040783 0 0 0
546 1 7.506368990233269 10.283426876749987 4.538716668878359 0 0 0
254 1 5.044987255671881 12.770418461454287 7.073926255374956 -1 0 0
481 1 6.459706626057216 9.083225641681722 7.196156462199495 -1 0 0
282 1 8.41828362431365 8.743783539317924 6.082255882741024 0 1 0
48 1 11.099030073899879 9.591603890918522 7.095287221789504 0 1 0
397 1 9.402919329161998 10.720060919681696 6.53456338420593 0 1 0
1176 1 12.343223225293375 11.58299528853977 7.469973497651197 -3 0 0
171 1 8.966567634174908 7.977522020996958 8.233094812018292 -1 0 0
1774 1 10.147530020097058 10.921790637049664 8.466213727202943 1 1 1
521 1 13.80811024034 7.026601621166623 6.7325732496540684 0 0 0
139 1 14.885825681646168 9.313396257839262 6.990204668906162 0 1 0
303 1 12.967052788616199 8.891261828320477 6.955216962374859 0 0 0
1358 1 14.478719053309627 11.299928101328154 8.579802162675332 2 0 1
653 1 14.195008224887955 11.064030198380852 6.243544127346974 -1 0 0
453 1 15.721065790810682 7.390623245010346 8.296675517004168 0 0 0
431 1 18.392878586797828 9.42741480120716 8.34213893444527 0 1 0
153 1 0.47734502951446145 8.337514306738989 7.975154883973782 0 0 0
215 1 17.223189610308687 8.097780874289281 6.7285642299075485 0 0 0
466 1 18.036125403799225 10.728910710448872 6.60326483785663 0 0 0
465 1 20.344698057532568 10.431919306598015 7.699100275518879 0 0 0
99 1 16.24218222612295 10.30294291218839 5.137865182937297 -1 0 0
1890 1 18.465743054150458 13.647589277700996 5.403807617805357 -1 -1 1
1443 1 16.272376231307142 9.487845448622378 8.648233116908466 0 2 1
275 1 16.51927031995306 12.138797869845721 7.631479257347777 0 1 0
63 1 19.144964653202415 12.659325578888865 7.71797447780319 -1 0 0
124 1 3.898578467174361 15.324453208099557 4.025197402575353 0 0 0
669 1 3.8516852312301597 15.525957826986609 6.5097107553671645 1 0 0
239 1 2.8832973341388066 11.730425277311406 3.518145834527198 1 0 0
1055 1 1.6750669674326948 15.550246401378752 5.152633416401482 2 1 1
266 1 2.8866227847920882 13.545319750654595 6.243767720337515 0 1 0
187 1 4.516168446060163 13.082523706661712 4.899947388072502 0 0 0
1461 1 7.2756055260639485 13.628969613940678 5.131905088972054 1 -1 1
504 1 8.105464389625425 12.603496147603765 7.304761805014249 0 0 0
940 1 8.59429182983305 14.361404868919482 9.09188540859041 0 0 0
392 1 5.6891982039407285 14.847157671517568 5.896817329917674 0 0 0
11 1 6.465707609698251 13.94265740185394 8.31689541289255 0 0 0
678 1 11.305110236311736 15.410307763339258 5.818622203904603 -1 0 0
533 1 8.851879934673082 11.981334752026587 4.557532188181844 0 0 0
103 1 12.125569232645667 16.69808260920543 7.109174943076438 0 0 0
493 1 10.38276221600278 12.748103697604034 7.2772669639465555 -1 1 0
490 1 9.337346370253147 14.037530781026803 5.480033443908669 0 0 0
1969 1 10.160045038572044 15.014970367567665 7.424207062865997 0 3 1
362 1 11.00430001099967 11.85755668811065 5.286544093929869 -1 0 0
95 1 12.250140630621027 14.253849117782153 7.511475563510375 0 0 0
540 1 14.783571013099017 13.268156072551037 6.90435983712574 0 0 0
378 1 14.414976958143116 15.141818386516931 7.865381473729719 0 0 0
356 1 14.1375927938506 17.045566131399617 9.156543055586525 -1 0 0
420 1 13.509457758247196 15.36875502217958 5.66341569091125 -1 0 0
375 1 16.052509376682103 14.969341710783558 5.572941185154591 -1 0 0
1258 1 14.413342968095975 17.011409025020477 6.905497065955833 2 3 1
218 1 19.590673013313427 16.373423052498097 5.154501303837383 -1 0 0
341 1 16.61316408566988 12.559447381305608 5.349635961379823 -1 0 0
269 1 15.316884672287477 17.094699939160513 4.500571441554763 -1 0 0
1929 1 20.08570572549523 14.51773048112063 4.163364954543114 -1 1 0
1263 1 17.691965868040533 16.200017838057235 6.4767776400461825 0 -1 1
406 1 16.97922426251254 14.360055337326852 7.4518706864866875 0 0 0
154 1 0.4663871563562323 13.989245064635629 6.0924835700070155 0 0 0
747 1 1.612018713485962 16.185343921832924 7.245671620236449 0 -1 0
734 1 19.62593054930513 15.020166117681972 7.121726918640052 0 -1 0
507 1 0.8165928952413537 19.822402813488615 5.371759373899893 0 -1 0
530 1 2.7683488850298152 17.544153044958236 5.371191296524223 0 0 0
168 1 4.077617295885423 17.638715624368935 7.3842839286864 1 -1 0
1541 1 0.46375730564107454 17.71473670421222 5.873624347356387 -3 -3 0
385 1 2.7780596025859947 19.588973245141567 6.039695803940424 0 0 0
488 1 1.2104255145169684 20.870201349251218 7.533969035452309 0 0 0
231 1 5.1061786075286815 16.715993217369707 5.218096874921837 0 0 0
474 1 8.300420629929054 19.193604872166148 8.366806678092775 0 -1 0
1163 1 7.395081429380293 19.432388391272596 6.1573394055805775 -2 0 1
706 1 8.25041482844999 15.287864973527299 6.928244645908055 0 0 0
676 1 4.885347222529328 19.285655240407756 5.803023993165404 0 0 0
1578 1 8.456595152793202 17.92483188240439 4.184305279056714 1 2 1
204 1 6.590737102600423 17.818475843335357 7.03282488543801 0 -1 0
660 1 7.896661634620866 16.70717589206228 8.59625551665671 0 0 0
1574 1 10.128787053623117 20.341522526694057 3.0106261876801863 0 1 0
484 1 11.56599612126519 0.48813151421930967 4.565549441048281 0 1 0
302 1 10.874605394288599 17.560647811080642 5.372129390836623 0 0 0
1775 1 8.83417928860638 17.567785857635457 6.4269180826117625 -1 0 1
272 1 10.478674001971342 18.554324090553735 7.381029164966126 -1 0 0
1982 1 9.83388648999811 19.448194350694266 5.262218635616797 -2 4 1
349 1 12.771342545839818 18.6913171885819 7.927291907629801 0 0 0
508 1 11.557504891570343 20.576215556540596 8.369832949340854 0 0 0
501 1 13.444572457332843 0.48181149134970175 7.182672573454799 0 1 0
262 1 13.071876900568602 17.829100724265828 5.222401854637749 0 0 0
402 1 12.225079863353285 19.84469897531156 5.898643832711951 0 0 0
173 1 14.956163103851045 19.382171669514833 6.3541535740261805 -1 -1 0
71 1 16.65523992887909 18.779133879078806 8.938659077415972 0 0 0
181 1 14.948949058876472 20.078861571473425 8.273925772431383 0 -1 0
1648 1 16.30802031222335 17.755392581453933 7.038913481813414 1 1 0
565 1 17.994472741955512 20.548514905958925 5.001746671267899 -1 0 0
417 1 17.058262017013227 20.295754458081326 6.971096607689602 -1 0 0
259 1 17.131605344911392 18.59167373389652 4.8889861093505145 0 0 0
279 1 18.287574612201936 20.0501514622932 8.714234099201278 0 0 0
740 1 18.61665153852215 18.702726191598572 6.665036674496937 -1 -1 0
401 1 20.641301934385126 18.99365556882772 7.554541973992424 0 0 0
427 1 2.3859242624328187 20.24550963114364 9.744558317468256 0 1 0
1302 1 4.883942312448962 2.4938214544308153 11.912347827290994 0 2 0
326 1 0.520020532457851 2.335979908975992 8.156671685351657 0 0 0
698 1 2.0934403523517044 3.7203180808503453 8.027654156945852 0 1 0
457 1 4.833534681831325 4.609886308450063 10.945681597660105 0 0 0
228 1 3.082353822749886 4.552814021799488 12.532757247313919 1 1 0
1813 1 3.86843542484333 3.166417069208838 9.531949484896504 0 1 1
274 1 6.988854242859301 19.565053589504494 10.378349881231033 0 0 0
1330 1 6.509773124052366 3.2360462024299266 10.17198226042389 2 2 1
582 1 6.751346381152069 0.8698209913500417 11.355381667444487 0 0 0
301 1 4.705768236949656 20.26585118800685 10.417743661987469 0 -1 0
512 1 6.194668503635222 4.933829575481371 8.520790762581406 0 0 0
297 1 7.418088248103897 3.3176032839210556 12.234514296097581 0 0 0
190 1 7.766188523490303 1.3925594846326597 8.561736210286645 0 0 0
448 1 8.562437465936034 2.0843670524723104 10.529379013495126 0 0 0
263 1 14.37007376116777 6.5545490754622655 1.0203117711063523 0 0 0
548 1 10.634167535367462 1.9338293783472928 11.106135307573435 0 1 0
561 1 12.263036863118304 20.26000267471089 10.616821790419563 0 0 0
364 1 1.1277707326850028 20.328214895763907 11.775011716752108 0 -1 0
659 1 17.290743368150956 1.1406046296431704 8.320974380332451 0 1 0
934 1 14.837502381223443 2.5696721917338152 12.01684133937644 1 -1 0
1669 1 13.68025832135998 3.3879101109033534 8.346511011059523 -1 3 1
500 1 13.960351694407189 0.8609197567787568 10.00009664414627 0 1 0
236 1 10.894691132643322 5.551973080412078 11.383345172284221 0 1 0
621 1 13.02204773305249 3.0233952913233293 10.936853277259498 0 0 0
430 1 16.18716792811516 1.1402919776337994 10.444450615775615 0 1 0
1980 1 15.512161759538834 2.9760020111924272 9.746193737815176 -1 0 0
711 1 16.296339575401838 12.142542742442915 1.156390024324539 -1 1 0
605 1 18.827471528250264 20.905815621027713 10.823770719528673 -1 -1 0
443 1 20.57022123969267 1.375022554056458 10.827339893418884 0 0 0
140 1 19.296194257774992 1.3673203979473942 8.976050450125244 0 1 0
1612 1 18.51763903370641 2.791771517519559 10.721949192889706 -3 -1 0
886 1 1.8341631898313893 4.316765854833419 10.369012930835382 1 -1 0
654 1 1.9781951511542117 2.0542673400390647 10.11894728912697 0 0 0
664 1 3.5230386729105594 6.344350518079316 10.49196875618443 0 0 0
416 1 3.2897075124372144 7.548799201773473 8.199494314112727 0 1 0
195 1 4.591879347961224 6.53228746083929 12.484085557734899 0 0 0
637 1 4.315003203960111 8.725181922986835 11.230347660520144 0 0 0
376 1 18.266656969363254 18.38238216367632 0.8756775101712972 0 0 0
1576 1 2.0080425439417104 8.33273074532221 9.8691876464753 0 6 0
151 1 9.734859069679175 3.6769842851380186 12.472858138898175 -1 0 0
898 1 18.047923236459162 18.71239598594542 11.451489817028818 0 -1 0
145 1 5.065773923203603 8.821101073972033 8.883297637115167 -1 0 0
644 1 8.540583421038237 7.071759616708782 10.416096721345465 1 0 0
545 1 7.001912871409375 7.8729010148229674 9.2692005044731 0 0 0
323 1 6.58083627590351 7.981852048104906 11.68965480180553 0 0 0
1699 1 16.949006174194032 14.316600822751525 0.898362652497435 0 1 1
435 1 6.870794307342209 5.528149503079678 11.244222973018632 0 -1 0
1657 1 20.32427140319399 16.81130614893212 8.771919873606636 -1 0 1
464 1 9.090688699149862 6.2338522751562655 12.487778703951676 0 0 0
572 1 8.108413690086547 6.024576953542357 8.28577583870851 0 1 0
941 1 9.08331737314396 4.439047991918618 10.543384246331645 -1 -1 0
1915 1 10.244897651876844 6.336022800686665 9.369732755571764 -3 0 0
1125 1 11.255401484500679 3.885638743515225 9.671594875743894 1 4 0
313 1 12.211943942947263 7.258029413967504 10.420262626355386 -1 0 0
165 1 13.800262181484737 4.80067391712074 10.418415819568551 0 0 0
314 1 16.645193820319264 4.592473838807733 10.66708781809584 -1 0 0
260 1 17.170286346606012 6.709177883685024 10.165989527399308 0 0 0
697 1 17.002171461914863 10.051286323458777 0.8567560029164877 -1 0 0
617 1 18.87817441287237 5.20395476847558 9.708336780203183 0 0 0
800 1 20.54581886070212 3.568855119558381 10.09377152760974 -1 0 0
180 1 0.3658719990103805 6.518746744777916 10.499420425462544 0 0 0
426 1 18.20654529563337 3.286091239013362 8.542412661167958 0 1 0
393 1 19.181265505498686 8.01349465206972 10.177273354010671 -1 0 0
776 1 18.74432545477208 6.970029211788521 12.238181743934257 -1 0 0
1164 1 16.213249629177213 7.95854750969984 1.0058418925758785 -1 2 1
567 1 0.5148154572311078 4.740807903561076 11.946692473215549 0 0 0
396 1 20.8382563963819 8.857625209189813 11.7224751374612 -1 1 0
439 1 1.3257211043169699 11.750893105611793 9.462921837138339 0 0 0
1514 1 4.165704156822283 10.785050796347873 9.78912273166321 -2 0 1
1021 1 2.141491746819702 10.1898084202971 10.86638927731776 2 2 0
1399 1 3.2824388525526524 12.659757728839805 8.331138877571588 -3 -2 1
693 1 4.0124509907097625 11.079662297677775 12.182764057907916 1 0 0
357 1 8.513993196560318 9.435521829782054 10.836607738703453 0 0 0
308 1 6.379916239041349 10.04560925396954 10.291072303415257 0 0 0
1116 1 2.7772876149596275 12.541750951559486 10.96006335263446 -1 -1 1
1293 1 1.831546266292444 7.204184665308335 1.603576718342032 -3 4 1
1041 1 8.231919653954778 11.779177789581965 11.88000969404881 -1 3 1
1332 1 15.398310845051812 3.8891012112313192 0.9246608664577464 -4 0 1
84 1 10.63619326169807 8.750368211686041 9.654353127284226 0 0 0
513 1 1.335321911122373 2.2236137862201826 12.19429215298018 1 0 0
1304 1 8.474717690746868 12.297183710481018 9.632974592613598 1 1 1
289 1 12.524060454205387 10.168239278072647 9.23879317814153 -1 -1 0
343 1 10.422282147523974 10.844305446029507 10.812444911089663 0 -1 0
306 1 12.858226390967728 8.912689232057149 11.31550920890861 0 0 0
583 1 13.037656556708676 6.134333159849746 12.203106061571344 0 0 0
334 1 2.286217756630931 15.256853401267561 12.679860235641899 1 0 0
569 1 14.551902047330776 9.073330235390603 10.074102343492138 -1 0 0
581 1 13.252223488537906 8.00639474289844 8.789491366391072 0 0 0
1857 1 15.337350123091543 7.061771598998222 10.781752867565878 -3 3 1
161 1 4.849658646156343 19.809528852686086 0.8349102360961322 0 -1 0
405 1 0.5541493364342287 18.080773929615773 12.001265472096614 0 0 0
680 1 13.292391366065699 13.20950868447638 8.968088530257553 0 0 0
702 1 12.682073952110473 11.792190788331503 10.730793539138176 0 1 0
205 1 17.784279247977707 11.243282349610089 9.445714098037287 -1 0 0
191 1 20.489524589040492 9.789283781961506 9.697769987054711 0 0 0
793 1 18.841442468949786 10.113162768630199 11.308878387028805 -1 0 0
638 1 15.377163825523526 10.938038248658104 10.529811533731483 -1 0 0
310 1 16.989996541590877 12.532137993414636 11.458466411734506 0 0 0
243 1 16.971629064010244 8.992793586265403 10.441368574245853 -1 0 0
1308 1 16.96076992345443 10.539086485510918 12.131700299240588 -4 1 1
75 1 19.414922638764175 12.06912920581985 10.384090653055463 -1 0 0
849 1 1.8348529138670566 14.58272008952975 8.185820365235347 0 0 0
1228 1 2.9611232572299677 16.431859463476975 9.071265493071364 1 0 0
1100 1 0.5544213982060772 13.612745282627342 10.838301643186467 -2 2 1
721 1 2.431291800633921 14.773308156288739 10.604995051788904 0 -1 0
1866 1 19.410168077229045 18.650797696010905 10.032195423455885 -1 0 0
328 1 0.5458886287533163 11.105259148108082 11.862034807802297 0 0 0
554 1 6.184526934749982 15.47349108693259 10.333259882159421 -1 0 0
1418 1 7.363346341621906 13.627923551794053 11.243173820909375 -1 0 1