LAMMPS data file via write_data, version 29 Oct 2020, timestep = 300000

2048 atoms
1 atom types

-0.7418207591227493 29.093820759121044 xlo xhi
-0.7418207591227493 29.093820759121044 ylo yhi
-0.7418207591227493 29.093820759121044 zlo zhi

Masses

1 58.933

Atoms # atomic

1839 1 0.7157009123591618 2.4752301796497655 1.6146645940241475 1 1 0
911 1 0.8106483008673684 0.6703118158271695 3.756339820177499 0 0 0
882 1 1.2631989968567559 -0.3357295614597481 1.6504216695148246 1 -1 0
1997 1 0.38573799057360625 3.2864522108331276 4.272489251982213 1 1 1
2027 1 28.14184484311618 2.5146671420472426 0.9180871017031393 0 1 0
1415 1 2.564198639836706 2.644299357795469 4.841909678949564 1 1 0
1238 1 28.738256942173226 -0.01269501137452489 2.009764396801 -1 1 0
1169 1 4.7724138139169705 1.0132363341528834 3.1067454365762917 0 1 0
1480 1 24.364274199112774 1.071640195983117 0.12023883184147799 0 0 0
1632 1 5.903282155035139 2.845411550612308 5.567053881649107 2 0 0
1273 1 6.8279819275761 1.8839092836432991 2.3573996772368973 1 2 1
1326 1 8.730140129520164 2.06855730208103 3.835750785177283 1 0 1
1670 1 5.566120150335641 3.727072119663994 2.164628636354524 -1 0 -1
1912 1 15.22476253039973 17.969579977821084 -0.6904073550206742 0 0 0
1039 1 8.053503753575026 4.151288276263479 2.4118326003606056 -1 0 0
1582 1 8.62589611074648 1.3671101421214606 0.22322477446876354 0 1 0
1403 1 6.680590125820476 3.5296460911630634 0.09748937628314802 0 1 1
1686 1 12.038176557354078 1.8977349940265897 3.7165772368696404 0 0 1
1648 1 11.378731138274569 2.2457351578218074 -0.18961864576319587 0 0 2
622 1 9.527031159163675 3.8109687905621072 0.3537894036751661 0 0 -1
3 1 10.766575962507641 -0.2604971651458559 0.9275225947864933 0 0 0
396 1 13.382165840884886 1.2008555309517226 1.4447294093232417 0 1 0
784 1 13.941547739265767 28.844839486877962 1.6591846710500997 0 0 1
2043 1 15.266636916685755 0.9012743398038996 0.2654094604956463 0 0 1
1850 1 14.781180672839296 3.3814385166287684 0.725638456271468 0 0 0
82 1 3.8303968555426025 27.559199041742957 -0.6271782397560818 0 0 0
1229 1 3.601589202615025 -0.49426292245346753 1.0313176667845219 1 0 1
2035 1 17.463430837315972 1.9499237496506234 0.5651865073721143 0 0 0
1454 1 19.319775591069153 3.1240495886647435 1.9960024640474279 0 0 0
1242 1 16.290065043619286 1.228949515444855 2.685196226321137 1 1 1
1623 1 18.807150740546426 1.4046739864024484 3.2465615775395973 1 1 1
990 1 18.424411910251667 27.24888730729225 3.217223914954353 0 -1 0
1647 1 18.005809189232075 -0.05229192201521515 1.648906166199211 -1 0 1
1345 1 16.026239426744358 28.45220092089657 4.023186102458455 0 -1 1
1484 1 27.480154454429254 19.109335685905382 0.5194984088305288 -2 -1 1
531 1 16.306615685298897 28.314818740100353 1.459739533501887 0 -1 0
40 1 19.812510425894548 28.080021195208708 1.2899885636800836 -1 0 0
1892 1 21.388086110709754 1.7800718541613865 2.246127988090546 -1 0 0
367 1 23.25810732390555 1.9136583074372124 3.8466437908819318 0 0 0
618 1 19.84710794320021 1.1178281692778602 0.8823588012517813 -1 0 0
262 1 21.965799070743838 -0.14101595545097623 0.47655354150115414 0 0 1
129 1 24.2246264380353 0.17865539535027786 2.584636741303891 -1 0 -1
497 1 23.77760144801676 27.15706093078323 12.252452222049344 0 1 -1
661 1 24.34213831177321 24.772797558275812 11.121436109248497 0 0 0
997 1 25.793231073929427 2.4874834167039728 2.1396825937121893 -1 1 0
134 1 26.224866510829543 4.177264950662215 4.661060532042842 0 1 1
1211 1 28.467572039488104 1.6506514349011567 3.6590679565647077 -1 1 1
1867 1 26.57849770694306 0.3568154305735194 0.6148591097456937 -2 0 0
1710 1 28.921614393565267 1.113657401022655 5.74209517520627 0 0 0
637 1 26.553829015730983 1.9198235044879874 4.778270350540461 0 0 0
890 1 17.901594803776497 13.118159884031643 -0.515334582374682 1 0 0
1943 1 1.4570387427324145 7.323471644605734 -0.39395673095313455 0 1 0
1359 1 -0.2903261317854361 7.008270554067911 2.3634578556513657 1 0 0
1660 1 1.6394243943138984 4.9528848878932745 0.9275422617949582 2 0 0
487 1 2.886195139578839 2.882089649595233 2.080547035132487 -1 0 1
1138 1 3.3591441287782473 6.198860659073532 0.35420682311807106 1 0 1
1713 1 24.415102808653298 14.231704560362171 -0.1502516159975943 -1 0 1
818 1 4.814757858306703 1.6137258565664712 0.8124456881747446 1 0 0
1130 1 22.932527624186402 7.690171127643618 13.014298345017961 0 0 -1
577 1 16.510297553944056 24.856849670948822 13.858508963676714 -1 -1 -1
1290 1 5.88431070137465 5.459588192312459 1.025215256610583 1 -1 0
692 1 8.052001614477756 5.89714061088588 0.8419126604077423 0 0 0
779 1 12.688290611330615 5.250460610291292 3.6127641428859443 0 -1 0
1863 1 9.334049302753522 6.2583704913498375 2.680836055529851 0 0 1
1715 1 11.307751968574479 5.132028013583371 1.762909393006448 0 1 1
1302 1 7.117101415546604 7.545896827836657 2.0686594061566543 0 -1 1
1223 1 10.450017951749464 4.210639106704794 3.88402239800599 -1 1 1
279 1 16.951353645195034 3.48841786503828 2.156097843649946 0 0 1
91 1 12.698649362056615 3.376549002073273 2.0815512712003867 1 -1 0
1445 1 13.9373930470674 5.6703563306156095 0.6790696272740928 0 -1 1
1840 1 9.774398818762151 16.146836022498775 0.7262830634393753 0 1 2
1761 1 12.157186861401271 7.298444431755424 1.5294843823975324 -1 0 1
972 1 14.93186126417245 7.595417474001012 2.3701263208419165 -1 1 1
332 1 17.361616388898778 5.009857461639051 3.939378960414423 -1 0 0
1194 1 15.652243672144532 7.465754157262186 0.13022632056649586 -1 0 1
419 1 15.295029514334416 5.084331742430632 3.389782735026939 0 0 1
343 1 15.715545971922442 5.0023154278640645 -0.5387258598540422 1 -1 1
1373 1 18.35920692672297 3.9728546009580237 -0.1403544148879814 0 0 0
1180 1 19.199419212499976 5.696217804890977 2.1574094732691247 0 0 0
1080 1 17.092124205666057 6.10594298543938 1.6793982161491758 0 0 0
1518 1 19.006768132424003 8.112202746471894 2.2991972382400245 0 0 1
308 1 20.614677580952176 6.793499878063234 0.24941237789984683 -1 0 0
765 1 6.5309323306932985 27.699110206346976 -0.7096638878533671 2 1 0
1875 1 16.93580564798875 8.985115963901743 2.191275661989137 -1 0 2
1915 1 10.34408540333387 6.293119433325936 0.19100049820466736 1 0 1
1505 1 23.17894235964464 3.3454580273281715 2.048767985832702 -2 0 0
519 1 21.060425189323336 4.074403154036128 0.958514459692287 0 -1 1
1014 1 22.58000673164985 6.260362352705384 2.146267184002102 0 0 0
1773 1 23.475324542394393 7.975339725166487 3.49439808504531 -1 0 1
690 1 24.40965723561913 6.10172590336755 0.2515864161969731 1 1 0
1437 1 3.073898423993044 19.89085612662241 0.7521026857215511 0 1 1
1046 1 27.377886852157555 9.627927261285594 -0.2052404895994312 0 0 2
1688 1 15.66282134089246 12.454096687700465 -0.4251552746806589 0 0 0
1056 1 24.133028933460086 4.907812389899637 4.2922308301118814 1 1 0
1886 1 24.937164267080895 5.379498312365158 2.2181623249394695 1 0 0
731 1 26.854548426820816 5.060479622861981 0.6192612088013505 1 0 1
1819 1 26.631876193606985 5.91819390895931 6.309750098688803 0 0 0
1837 1 20.220958836168712 15.778371604792756 0.7511326163342873 -1 0 1
616 1 -0.4371842324517225 4.401523738840325 2.119149653214657 -1 1 0
645 1 25.42508569259074 6.8147492764387065 4.287635700339873 0 -1 0
773 1 13.597028774875163 8.887207077721143 -0.2918479214311624 -1 -1 1
55 1 2.298522320247828 7.676772472729208 1.7580107221792267 1 0 0
20 1 3.6510446113691586 9.983254619620332 -0.3467453024326118 0 -1 -1
1468 1 2.2149274875161393 12.74819984062536 0.0787770241064133 1 0 0
1264 1 -0.2237950261568673 9.20823110782637 0.7360636486425216 0 1 0
1668 1 5.251536945729947 7.973745322349522 3.4521081100000037 -1 0 1
664 1 3.895456503276166 12.199865332677188 1.5269833627454958 1 1 0
931 1 8.516922253304816 12.490394485058333 -0.6176685371418525 -1 0 0
2018 1 5.437403891361024 10.135134332452974 2.856687527110778 0 1 1
1460 1 7.6194078556929075 7.796980242377327 4.365032686075348 0 0 1
366 1 7.508436746092819 13.247901281043127 3.443011923433173 1 0 -2
172 1 4.765070634548268 7.893607547407941 1.0923181110447855 0 0 0
1789 1 9.854548017469405 12.136901308861487 3.0729499856569444 0 1 0
553 1 9.350705894700718 8.530422169349578 2.0322371306281193 0 0 1
525 1 6.85242327741049 9.079255003092113 -0.0576354939772582 -1 -1 1
1141 1 11.332486099752943 6.814377218092703 3.8240462242286855 0 0 1
488 1 11.180198566057314 9.616511903177553 2.762162334086039 0 0 0
916 1 8.389693647482689 10.64371562667679 0.6913080287528897 1 0 2
2013 1 10.535499931619352 19.513904839541627 0.45501665841744376 1 -1 0
1563 1 10.955081323627606 8.876174902788412 0.048724893950135906 -1 1 1
30 1 14.003423009288072 9.995213977575988 5.863868060601028 1 -2 -1
797 1 15.646510777777305 10.076631902477624 0.4296858819770568 0 0 0
656 1 14.296169766866663 12.169618267992531 1.562519330468422 0 0 1
1432 1 13.063325069918601 11.530999738947209 -0.3213505850377437 -1 0 1
1111 1 15.86311552691149 10.601367545943509 3.1211704141615866 0 0 0
944 1 15.664540630239184 14.256435530073084 3.6708965477887734 -1 0 0
1204 1 12.23330797775676 11.699062474896483 2.6553197031318083 1 0 1
1522 1 13.443834900302665 9.869871187939237 1.7216835569622662 0 0 1
1008 1 18.20983054195509 7.940272625252559 0.11121391063821662 -1 0 0
404 1 18.286717528418183 12.230492702380381 2.3735156612764023 1 0 0
675 1 14.707416319596987 27.951413551469106 -0.42838633892187067 0 0 0
1374 1 18.229990630762703 10.010746444338272 3.7136438694817953 0 0 0
1902 1 20.538208674519193 12.018743297285905 0.9779363564059269 -1 0 1
376 1 18.01593146589763 10.21533327878429 0.7581897642630606 0 0 0
36 1 5.62325233387431 15.697873890891685 -0.4613907042006092 -1 0 1
1645 1 19.6394602524983 10.14238759888947 5.8894520231897145 -1 1 2
183 1 20.18038579621737 10.768337914597238 2.8215548847697596 1 0 0
1426 1 21.396916147273178 8.206767397491701 2.11274713297095 1 0 1
789 1 25.33062584527275 9.465698151280206 3.2751636866630447 -1 0 1
339 1 23.281185321905483 9.713745354445823 2.160620201431613 0 0 1
1797 1 23.000105182624356 8.159852853063619 -0.1313657117948166 0 0 1
682 1 24.990518087836502 9.666414596182687 0.30887862662137366 0 1 0
199 1 29.086918349627748 11.45034663261629 0.028934556474432327 -1 0 0
463 1 26.160445023196672 7.442390977969133 2.1182431162277173 -1 0 0
189 1 27.069190409527906 5.543657943002044 2.998819169467852 -1 1 -1
1116 1 24.568438485307468 12.172426171159232 1.7463135383322457 0 -1 1
185 1 27.67476676315602 9.112404447629315 2.2545765580572237 -1 0 0
2007 1 25.602769422838502 11.94762609087733 4.0195811102731955 0 1 1
1994 1 26.847246400195033 11.279479898535005 1.4736108530066159 -1 1 0
1208 1 0.35005008208763444 13.427373252534721 1.5685040410252582 0 0 1
1870 1 2.0406918493331445 14.323094442688141 4.654419999404348 1 0 0
1700 1 2.5675047486343066 13.771646173983532 2.20408057241504 0 0 1
342 1 2.1558547660174048 10.71111181873389 1.4877193750714302 1 -1 0
685 1 28.814112195752326 15.657029964113743 -0.2253757938670835 -1 1 0
897 1 1.317153557313119 15.04374889723622 -0.01451520128434114 0 -1 0
892 1 5.089625398679887 14.137457142124237 1.0605727282933466 1 1 0
1168 1 4.284062576545077 14.904965212519809 3.316234257741365 1 0 0
1984 1 29.070224369345123 6.003463146959681 12.956841698973054 1 1 1
1378 1 5.242983416534058 12.377213159533143 3.437459136367317 0 -1 1
1852 1 5.831746685762317 16.354886933668553 2.3538053278137103 1 -1 1
922 1 9.384877729526881 14.056108268858319 4.792149239728415 0 0 0
435 1 22.417675316155723 19.268545401455523 -0.3184019058181958 0 0 0
680 1 7.2535181879731425 14.46413918411273 1.3600796537102826 0 0 -1
159 1 9.762239908532294 13.299665760828855 1.0793281828677095 0 0 -1
1916 1 11.805275326947829 13.933950336740285 1.0751347749932203 1 0 1
470 1 22.455481970151737 10.554303638669339 0.06160562642581946 0 1 0
1733 1 6.366609074428632 11.855571914936144 1.216298237857327 0 0 1
1750 1 11.365209344101045 13.676510315590406 3.5194168917323427 0 1 0
1015 1 8.395770733090442 12.046438545276894 6.042851582943438 0 0 0
726 1 9.742164968424916 16.265304015602165 4.885632735587304 0 0 0
624 1 -0.49919929957541986 24.35509048909204 0.36506385223561466 -1 0 0
849 1 14.247187490145368 17.272600982643187 2.539076724606325 0 0 0
1219 1 2.4105858581275834 1.2862513654653789 0.11337888782136873 0 1 1
107 1 13.452637747345248 15.50289672747001 1.1785631436001098 0 0 0
1243 1 10.7922769580938 11.25706114205263 0.7908983038133106 0 -1 0
1151 1 16.598144714267796 16.033221069634937 2.125099685644982 0 0 1
1721 1 7.932977056960944 10.46363107767847 3.3667770120910774 0 -1 1
822 1 13.642251949013964 13.916872637307824 2.8054723747544 0 -1 1
270 1 15.84545789489011 18.66159220560872 1.7232619649439251 -2 -1 -1
1355 1 18.120670014529146 13.974425112210696 3.9764416479171967 0 -1 0
535 1 16.372860559583962 15.292630048265426 -0.022881330696863156 0 -1 0
104 1 16.284763065312738 13.613242730678206 1.5358773750455397 0 -1 0
1390 1 22.58993048129953 14.512300936830554 1.8278165925550205 1 0 2
548 1 21.36190533421414 16.353798656832904 2.6932788338512057 -1 0 0
627 1 19.964361183168066 13.850528859599336 2.9260615312538127 1 0 1
961 1 17.18004039680804 17.74172516533809 3.5549808489596106 -1 0 0
891 1 22.42218337962676 16.455564713877703 0.24630736522193308 0 0 0
52 1 23.949713740878806 16.436559536578553 4.867015848270876 0 0 0
473 1 24.674208873731953 14.212528812944456 3.865802334468593 -1 1 0
764 1 18.971302990914825 15.911033925726734 3.208364130455137 0 0 1
75 1 27.25115130770847 15.327111967613373 4.480353596217899 -2 0 -1
1055 1 22.400609345856278 13.006538908205977 3.6473615909380808 0 0 0
782 1 23.88119074752431 16.52036667762805 2.582848674861109 0 -1 1
493 1 -0.634054552248889 11.006809262901607 2.4040058949850254 0 0 0
1384 1 27.854932507207934 13.399272975238603 3.2850867659954197 -1 0 1
1494 1 26.77478556492448 17.044320320013632 0.7361219168584383 0 0 1
1825 1 27.676961413385722 13.34159584225111 0.9687295551225783 -1 0 1
273 1 28.145671327896366 15.468103754631944 2.2076904423453985 0 -2 0
409 1 25.736173742602425 15.202294114020013 1.5053726515525008 -1 0 0
1136 1 14.16815289671467 10.059106430095026 14.071256593653455 0 0 0
710 1 0.9136646137291071 19.18094514753477 -0.4631980711583748 -1 0 0
150 1 2.414821725489032 17.643368435370807 0.7247804045363391 1 -1 1
1772 1 -0.5646972830344197 17.434168933906268 0.7464087013055445 0 1 1
1955 1 2.408921443104729 21.311388854495064 2.6557195649063003 -1 0 0
1624 1 3.268984864526142 15.64451339125516 1.0407484883989238 0 0 2
6 1 0.947545320144098 21.647001042563577 0.9373790276210434 0 -1 0
166 1 28.2088916764066 20.98746370397242 5.643980252581738 -1 0 -1
1854 1 27.927006958595673 7.5147388184326225 0.23991870319186315 -1 -1 1
63 1 4.3311441715153265 18.538054797121813 2.5477119724453923 2 0 1
348 1 5.5895195097931865 18.192500882138688 0.3335459293297358 1 0 0
520 1 7.045805057717819 18.70733854126315 2.3447750861072283 -1 0 0
1920 1 5.587408687005181 20.34035633616573 1.1155769973913334 0 1 1
1195 1 14.08335330394259 19.130429796710473 12.07785392779781 0 0 1
981 1 9.593532566182924 17.728762766547923 2.2137146489977124 0 0 2
507 1 8.263444000665796 19.14829569281644 4.1306099833992915 0 0 0
783 1 11.341096079808887 15.851907195346293 2.693177530963344 0 -1 1
936 1 8.904564715899765 15.100824947831407 2.650658409027544 0 0 1
1139 1 12.108958482523175 17.12703726573279 0.042862088622144245 0 -1 0
677 1 22.027870192529637 2.1185018437944922 -0.09760866260432977 0 1 1
1186 1 13.334602234364121 19.187758316607912 0.6825329978520944 -1 -1 0
1770 1 16.581563136053013 20.000714729941624 -0.15371261254239976 0 1 1
1363 1 20.249853699560344 18.314461620308474 0.8473383982369627 0 0 1
1805 1 14.182540163163425 19.84538895477258 3.217048348431033 1 -1 1
1315 1 17.470711558704185 17.553411724693273 0.6039050524674683 -1 0 1
595 1 18.433818506888763 19.25880383122409 1.896395605299058 0 0 -1
1740 1 20.101890574220338 18.079588262258248 3.3324316873401427 -1 1 1
264 1 18.39104306541994 14.801495730426241 1.2096176209522247 0 0 0
349 1 22.010011140701554 20.3570096011574 2.726224191347004 -1 -1 1
222 1 11.514221772934977 4.6006069273732475 14.022229696699966 1 0 0
460 1 22.62922231538744 18.189262269238235 2.034090513674696 -1 -1 0
276 1 23.43946364218028 21.779719132991115 3.6669448004984373 0 -1 0
1097 1 24.99623795428911 19.687062871309156 1.428046763988188 0 0 1
39 1 25.05436150039873 18.44978141614843 6.095061217210911 -1 -1 0
1269 1 22.32993789043561 18.54362135959207 4.3675350907553465 0 0 -1
1164 1 24.498883081981543 17.757661491668326 0.17699495360179063 0 -2 0
1756 1 20.943961611184953 21.14700837771332 0.9452790893070007 -1 0 1
1217 1 24.538621501470093 18.74156938803973 3.5133032922469907 -1 0 0
295 1 23.362050279028914 20.950300891177722 5.849456557608926 -1 -1 1
195 1 26.119967645040308 17.008486896395024 3.0869075312425434 0 -2 1
1439 1 28.405872170739528 18.160117181680082 2.724885563033256 0 -1 1
1695 1 27.338390145251044 20.370559967166923 2.927867617352188 0 0 1
438 1 27.116532793194736 18.909058689184743 4.7598038464262515 1 1 0
1974 1 1.658972600581743 24.103192010033887 1.379690331537307 1 0 1
702 1 1.3093467994675936 25.465021403578554 3.209836129667335 1 -1 0
606 1 1.8153382688820923 21.237191636922727 5.443698107965627 1 -1 0
669 1 4.525429722795669 21.53215945836189 3.1724477702096125 1 0 0
2021 1 -0.011988078009287806 20.935665950517496 3.675818702402764 0 -1 2
1094 1 27.527717142892595 17.695034093202754 12.78636393153071 -1 0 0
955 1 5.512168525154981 23.026501777110575 1.398260533060181 1 0 0
929 1 3.5942350193733885 22.198408261893913 0.6417733917408592 0 0 1
1909 1 5.424595590925516 17.025697246427654 4.630325216453353 0 -1 0
1232 1 7.662358969131915 21.044937329259703 2.4253857337965097 0 0 0
269 1 6.191738404620303 22.77216775226289 3.8446387214485744 0 -1 1
1020 1 7.587256980178799 22.292907299945686 0.446930830040144 1 0 -1
571 1 10.356258833832538 20.798302995153566 2.6509309022481715 0 -1 0
145 1 9.198293573673356 22.82704186710946 2.540443300901536 0 1 0
1010 1 10.111690365329382 21.77045131873622 0.4779606359287365 0 0 1
1516 1 10.492237914517458 23.099095033063698 4.459372899516046 -1 -1 1
2041 1 11.45280199747288 23.222444620531917 2.123711872156692 0 0 1
1781 1 11.871748310044257 18.57361229273093 2.416410781882651 0 -1 1
1199 1 12.24252643629978 21.17037787911802 1.3994913186711133 -1 0 1
362 1 14.685649563842933 21.44222357758914 0.6816316749000499 0 -1 0
844 1 25.36364511435914 26.590270803499536 -0.25611445010240225 0 -1 1
95 1 14.747548273325442 24.142584658122942 0.8188971291955998 0 -2 0
550 1 8.242564891233283 14.958437073244012 -0.7183392276697839 0 -1 0
204 1 14.152635067000697 22.9516495288194 2.4755206589023957 0 -1 0
133 1 16.749182353829323 20.932429610783057 1.7086837899495189 -1 -1 -1
1113 1 8.969679038584266 7.9922161515393615 -0.7158995167911244 0 0 1
2016 1 20.260691271377688 9.349946963732426 0.4748578840517519 0 -1 1
1948 1 18.311832672077447 22.370652437655068 0.6963245128547431 1 -1 1
841 1 18.38762423400742 22.52577707155171 3.1368207853188497 0 -1 0
1213 1 19.729809473187323 20.56012449854064 3.002705286505077 -1 0 0
1235 1 18.38809563387589 24.66725270375436 -0.0500796870502056 -1 -1 1
1197 1 24.03832439728392 23.53170829520008 2.1907098470788147 0 0 1
94 1 25.84547421976148 22.062525461807006 1.5699610391192533 0 -1 1
124 1 23.511607696966223 21.750374729090606 0.6130626350231037 1 0 1
1975 1 20.617549136175377 22.877049403492766 2.8780997580708862 1 0 1
1509 1 25.863824142336785 23.87097559451378 3.925214786298894 0 0 1
1716 1 22.298020926560522 23.563163711882524 4.825415196306116 0 1 0
1762 1 14.17933863020043 16.6736387339001 13.553845083616043 0 0 1
306 1 27.240913299169687 23.28446594841181 -0.7416244297930553 -1 -1 0
1848 1 28.197573304377894 21.515418940495763 0.9388694566031732 0 1 0
164 1 -0.06274938753013493 19.632305359699743 1.8949962004470007 0 -1 0
110 1 27.675994729247144 22.61407486204791 3.418575391668866 -1 0 -1
1549 1 27.21655090736037 23.77411974709934 1.6507669997321393 -1 -2 1
1140 1 -0.37698094857354086 23.564599116794277 2.6883019651551647 0 -1 1
35 1 -0.509675312038042 22.984533831180848 5.199057954710846 0 -1 0
1028 1 25.563400121450087 24.122216668931127 0.22115441737097297 -1 -1 0
1786 1 28.29639739331623 26.45589044451242 2.2223276798473153 -1 0 1
1401 1 9.76734386634984 26.611560456598653 13.882105120900109 1 -1 1
1628 1 3.495612375085571 27.17506299021322 3.1938315885103172 0 -1 0
444 1 28.887486362605316 28.893851522283704 3.9679521247751532 -1 0 0
423 1 -0.01639643816965697 27.570040094847396 0.8639213850669165 0 -1 1
1146 1 4.239124732805069 25.134876129901023 0.9856661187852687 1 0 0
1353 1 4.337983285600687 26.407991484241187 5.1764065250866045 1 -1 -1
1666 1 2.172968094238181 27.011903122800398 1.3573998927796782 1 0 0
740 1 27.984093699572572 28.784883336649425 -0.40699998575230933 -1 0 0
209 1 0.6976226922350188 27.757275802776853 2.9763140710087868 1 1 -1
809 1 7.0341191724894925 24.466053691199622 2.0427206473396566 0 -2 1
1409 1 5.3097233819334555 25.361881765424474 3.339455388034243 0 0 0
1570 1 7.635166459044539 26.106350040285214 4.201001311178663 0 -1 0
1103 1 6.102570265177381 25.50645232527351 0.04849490035275372 1 0 0
16 1 8.705650304179677 28.868154508849333 0.11513929940512801 -1 -1 -1
121 1 5.236671854988425 27.147561548994712 1.4920723929440145 1 -1 0
1908 1 7.751313762319839 27.01441076892238 1.7273547748891271 1 -1 1
1490 1 7.637888256350896 -0.2956991958523731 2.3463355527640246 0 0 0
218 1 9.378865072059456 25.179573666471832 2.5704153297433217 0 0 -1
135 1 11.472865379650163 -0.16715444176875371 2.9027566715146276 0 0 0
2032 1 9.435607967390629 24.09864717170333 0.018823771547800572 0 0 1
977 1 10.08931730355843 27.08546716311407 1.024681051263159 0 0 0
1672 1 9.703778320236577 28.081388146559295 3.3800010913607386 0 1 1
547 1 12.50716512047777 25.259387482042897 1.4337809305969866 -1 -1 1
1047 1 26.858631756847206 28.895208145378596 13.303084133634162 0 -1 0
2031 1 14.141354388147198 27.39441698976172 3.629899446568346 0 0 1
778 1 26.87656692992507 24.318967308739097 11.9968281295785 -1 0 -1
1021 1 11.316476725569009 26.53736496936385 3.2667972722898346 1 0 0
562 1 16.81515593497769 26.157277976519207 1.491521799831116 0 -1 0
382 1 12.19225963543102 27.182735482931726 0.5083372840370237 1 -1 1
1334 1 14.410150098967309 26.470647240071166 1.3417009182534647 0 0 1
146 1 12.279602328972064 23.028086881935582 0.08597350983732877 0 1 0
1965 1 8.568774696450072 26.200817860320445 -0.5730668053331027 0 -1 1
1785 1 17.372175970498454 24.163618615868643 1.7730039562799997 0 -1 1
1725 1 17.581268932874906 27.17914173006927 -0.2400876157590598 0 -1 0
833 1 -0.022051239792827193 22.595577709434547 12.978768237743221 0 -2 -1
1533 1 19.069189696524745 25.02055749427453 3.455225053030879 0 0 0
1655 1 9.775618078501187 16.05793638946144 13.651851786084194 0 0 1
1036 1 21.79066393797711 23.58319393870397 1.1807805834599083 -1 0 1
1683 1 21.70588356333675 25.303385399733752 2.51823393260403 0 0 1
1629 1 21.886095157853013 25.27595383648868 -0.44524365336769517 0 -1 1
1305 1 22.448437683307386 27.612097687066747 1.6807156022694447 0 -2 0
1220 1 23.81031712436151 25.909167565109815 1.2080656263873737 -1 0 0
1469 1 19.98563227288157 25.62148768620267 1.2548074695972369 -1 1 1
1595 1 26.734682112776547 -0.11800503247982086 5.518878294250194 1 0 1
1081 1 24.609678026814894 28.446568502014614 0.8550446327815977 0 -1 0
202 1 26.563446410992537 0.18569585358304996 3.2757377339520124 0 0 1
528 1 26.607832190249376 28.355015428479597 1.8558672000702048 -1 -1 0
876 1 27.82696119018097 26.122528973914118 -0.2205943185648931 1 -2 0
895 1 26.010788179148108 26.064599322824325 2.050873746620577 -1 -1 1
394 1 24.75195627054507 27.792438329658186 3.132735618046356 0 0 1
1615 1 27.0642778108109 27.441942410120316 3.9490766866326776 0 -1 0
1414 1 25.73395922786315 12.301934271416402 -0.19172126808255308 -1 -1 1
1470 1 1.9449629513910733 0.1659801023679096 5.775027459569916 1 1 0
187 1 1.562166716730161 1.3441766971108988 7.826953916380253 2 0 0
1574 1 -0.13945187769629552 28.24222756166472 9.990814433707943 0 0 0
1091 1 4.209537778833201 1.3539691401689429 6.369788029642219 0 0 0
119 1 1.5502428595685478 27.770492072095397 5.213818283380431 0 -1 0
114 1 4.305688136110087 0.4979560764753923 8.59383550170397 1 1 0
2003 1 5.713897810849602 4.745883187366132 6.692055936821046 1 -1 1
1790 1 7.464910353796293 3.0668977409421125 7.505166573386997 0 1 0
954 1 6.006837778220714 0.5411720529999806 4.6557779370893515 -1 1 1
790 1 7.50650603268328 0.6449535331994667 8.137899597121994 1 1 -1
1329 1 9.592659183744985 1.600804194888891 7.620140784081116 -1 0 0
1108 1 7.95887516488941 1.7258464612924258 6.04619000817005 1 0 0
431 1 14.734130061481766 2.8295151909653335 3.339838275997746 0 1 -1
608 1 10.303858903001792 1.6707330593010248 1.9759229901588347 1 0 1
623 1 8.96013179810914 2.9707676445907043 9.577411079992492 0 1 1
730 1 10.052934897254108 3.3853926469919813 6.386128573862049 2 0 1
1698 1 12.710677606006405 28.713621781018094 7.58609243897622 -1 0 -1
699 1 13.024615053587736 3.4524626058001937 5.343145406869759 0 1 0
993 1 14.358937014542228 28.694449468460995 5.708620727124974 0 0 1
814 1 11.441811125720902 3.1057975291639783 8.1767313712926 0 0 1
1675 1 13.96284482010542 0.531844966362653 4.0086423362125085 -1 0 0
952 1 16.53564196280468 3.205299503944743 4.908424526057706 -1 0 0
216 1 12.920073438186389 1.0958069536529569 6.822889582461796 1 0 0
676 1 12.000353709394734 -0.5308115259137974 5.032002972264943 0 2 0
247 1 14.885401017600831 -0.3826618304831892 8.299262474240516 1 1 0
1085 1 10.782742387163612 1.4277408934999012 9.769594885965539 0 0 0
1847 1 17.072912615665853 0.5941380389370481 5.015869957910185 1 0 2
219 1 15.51625672523009 1.0044581101749375 6.314677469467143 0 1 0
640 1 16.17712007114674 4.633864215716408 8.526320803122513 0 1 0
738 1 17.660938115116462 2.6482829696681334 7.303664536223989 -1 0 0
943 1 19.990174610841056 1.788770212037397 7.4600432308748665 0 1 0
72 1 18.61501641445809 0.058705871216288674 9.508381111843915 0 -1 1
1018 1 16.021965249446424 2.099363749205423 8.948061218341353 0 1 0
180 1 20.663514596731627 1.4948550003564285 4.506702270628464 0 1 0
1309 1 22.468031590991732 2.06955150205966 7.58830711203996 2 0 1
745 1 23.515148796423173 0.2816383442389394 7.899378676234814 -1 1 -1
983 1 19.19599225516598 -0.37872866154738016 4.96472526589369 0 0 0
1394 1 21.194955451962002 -0.5454187321796186 8.06359281844863 0 1 0
1361 1 22.05607976729786 0.7081133931760013 5.943356875103026 -1 0 1
1310 1 21.249404491518167 4.073100306085752 3.267152964461113 1 0 0
1466 1 21.120350631319514 1.2986852744897615 9.881419302446718 0 0 1
1118 1 28.548274638798112 3.639130641876384 5.621008895786908 -1 1 0
1086 1 28.421436173309694 0.08968977099685838 8.245286385554078 0 0 1
434 1 25.7529633447287 0.6493873177457059 7.499786440245936 -1 1 0
1050 1 24.2129894959047 0.4780962177633601 5.269216040504741 0 -1 -1
708 1 25.304808690006396 28.086358787954463 8.536347213940617 0 0 0
1133 1 27.19109799700881 1.6944897837861803 9.469784089515478 0 0 0
772 1 24.410740928560887 2.5802888004670166 6.043806112129876 0 -1 1
1201 1 0.6872165700134256 2.6384368351409306 6.120872725716328 0 1 -1
1941 1 2.824122907676157 7.250496861843569 6.55737109176253 1 1 1
385 1 2.8783629365565555 5.084865614011991 5.880980315776332 0 0 0
318 1 2.1120882611615963 4.687962306921655 3.5540588230003056 1 0 -1
1153 1 28.589843719753876 6.071641393557505 7.5432210897086005 -1 0 0
1292 1 0.0028883411711204676 7.330714525397392 5.9104716285532035 0 0 0
776 1 -0.07648494689895302 3.8884014562457683 8.113404558800834 0 0 0
1873 1 0.6124811467408044 4.801451344260576 6.144828822481415 1 0 0
2042 1 2.8449625684180084 3.2994627791668067 7.296533575314303 1 0 1
1787 1 4.560690188449343 4.165322387484623 4.435388011056149 1 1 0
2019 1 3.3799569288585536 5.379616081316939 8.45953819061625 0 0 0
60 1 3.9973498941763363 5.613996623833984 2.5206535572937674 1 -1 0
603 1 6.488418857377033 5.776099485391573 3.6789421293899016 1 -1 0
908 1 7.454530167112642 6.11325742909376 7.5359826968973636 -1 1 0
543 1 5.410760616010967 7.163334500831609 7.625460279582525 0 -2 1
1379 1 4.857569696955106 6.518954189381687 5.430954834543412 -1 0 2
469 1 13.166591752347287 8.16039536769415 4.158858902563063 0 1 0
966 1 7.665846681639117 4.3893220265368385 5.374103190111822 0 1 0
1158 1 9.326901223913264 4.566404033869361 8.277461732938043 0 0 1
1222 1 14.711172195140325 5.907482687742771 7.743833504906908 0 1 0
985 1 9.24313057160557 5.6934844509556495 5.716527685418131 1 0 0
472 1 11.709473340107376 5.577393099328352 8.362252127242998 1 1 -1
988 1 11.975629103425527 5.547313054032306 5.81749399273645 1 1 0
1350 1 6.717430680289659 4.623272459820071 9.13838359761543 0 0 0
843 1 13.409912415832856 7.9182068694282695 6.858544541786593 0 0 -1
181 1 15.623213546879445 8.33978960044081 4.510699452778013 0 0 -1
1871 1 14.476301642343055 6.344378643469746 5.466364703837829 1 0 0
564 1 13.77445800679384 3.327702433974479 7.5481423600089865 0 0 -1
1765 1 16.52662812011869 7.353572679536642 6.796549625859717 -2 1 1
804 1 19.175367442946484 7.794654867904981 6.785568775351536 0 -1 1
1456 1 18.418004593494434 4.223808573356896 9.064040775102637 0 1 1
1832 1 18.988186399594827 2.766846105262546 5.152305548571736 -1 1 2
1459 1 15.47321729616019 4.247939028396822 6.160638231225079 -1 1 1
1227 1 17.907439532349095 7.345912736632648 4.23575157832045 -1 1 1
829 1 19.75765286801742 5.365749891144921 4.601492813409346 0 0 -1
383 1 17.978341010367753 5.301818042876097 6.454580666408704 1 1 -1
297 1 20.0471419706104 6.067398014136375 8.023561995932274 0 1 -1
559 1 21.98411822931404 6.475490872521705 5.039334357061902 0 0 0
646 1 20.336686434292258 3.830667479119735 6.752260240606132 -1 0 0
92 1 21.328348027450616 3.590377557113686 9.152795839090219 -1 0 -1
1396 1 22.58445470901162 3.580940336246262 5.180684816515272 0 0 -1