LAMMPS data file via write_data, version 29 Oct 2020, timestep = 300000

2048 atoms
1 atom types

-0.4983765587553428 28.850376558753688 xlo xhi
-0.4983765587553428 28.850376558753688 ylo yhi
-0.4983765587553428 28.850376558753688 zlo zhi

Masses

1 58.933

Atoms # atomic

8 1 1.4068878699090903 1.6232128451177927 3.2613879409741604 0 0 0
261 1 2.9858177939242094 1.2538455317025121 1.4772446864777535 0 0 0
35 1 1.327881880148286 3.0300673563000773 1.1725576153271164 0 0 0
293 1 2.81615480352766 3.589841293624035 3.0615477565569367 0 0 0
3 1 1.3298208749214002 -0.3944066789651532 1.8012187293856456 0 0 0
259 1 28.467566108227356 1.5762627296334624 1.604291630233102 -1 0 0
260 1 28.747570443566445 3.2968655741593285 3.1496893050294195 -1 0 0
21 1 17.96822853541714 -0.031012164228942984 -0.18769629606317795 0 0 0
12 1 6.554311450681686 1.3060102891166652 1.5490555916639615 0 0 0
262 1 4.691093161171342 1.6116510363374958 3.234040668518581 0 0 0
2 1 4.505581959987212 3.1824789294877656 1.368485717266382 0 0 0
7 1 4.569447859617728 28.65066162382317 1.8410226251922177 0 -1 0
16 1 10.404779810940457 2.0402044693634798 1.250191141716912 0 0 0
267 1 8.985070333934916 1.6611604432411995 3.3866982829297876 0 0 0
302 1 10.835285578792789 3.5128130350968316 3.0332484130586144 0 0 0
305 1 12.747850693293161 3.0908112622145354 1.5134218609991805 0 0 0
110 1 12.515121850690194 12.296414774578361 -0.41928908848446117 0 0 0
270 1 11.885256736778807 1.4789099205672043 3.7151538396775257 0 0 0
20 1 14.547207707013355 1.5458857745671946 1.7653530236961972 0 0 0
52 1 14.227200791753466 3.285061583787366 3.6220579095103558 0 0 0
274 1 15.92908733281297 1.5666053447414607 3.7846900172007087 0 0 0
51 1 16.26893173166684 3.464917729069345 1.751729128647686 0 0 0
24 1 15.831078607386566 -0.4167327935621274 1.973170335067144 0 0 0
307 1 16.03456172283696 3.394349212499216 4.989188636661866 0 0 0
18 1 17.77338180749044 0.9554079927715495 1.7597738543410992 0 0 0
502 1 19.776813433325653 0.9812906091048748 3.26088743885395 0 1 0
309 1 17.91308226621004 3.0520621148741207 3.2198425866632214 0 0 0
55 1 19.554201587136994 2.821844543167655 1.5187220446079976 0 0 0
23 1 19.885369658439323 -0.37092868921553324 1.1567162888289846 0 0 0
277 1 18.231792366499732 28.267041869235555 2.7762355620908306 0 -1 0
282 1 21.57723182984297 1.4101281835515609 1.7306122159539195 0 0 0
288 1 23.720747596813307 1.413724605990894 3.2709697042715056 0 0 0
59 1 23.901368229735507 2.9111538179113676 1.46784192585514 0 0 0
313 1 21.57781501000125 2.836235795291206 3.733521897626681 0 0 0
317 1 25.165106116071957 3.7811980611496203 3.269459956514271 0 0 0
32 1 25.384417893676794 1.2693100128934356 0.9768385363744945 0 0 0
63 1 26.627751023749862 1.2162247583577575 2.930929902651159 0 0 0
61 1 26.996615418056624 3.4951797624124077 1.4316853180965705 0 0 0
121 1 21.766044160805368 10.283520689423513 -0.22750328116012464 0 0 0
185 1 21.31978085462265 17.766728634339646 -0.4625829082940314 0 0 0
515 1 28.41140825542908 -0.3332690802501168 10.264848036908468 -1 0 0
286 1 25.45262629218986 -0.4626182180043017 3.243444412341815 0 0 0
97 1 -0.4757395189884696 10.562514802480198 -0.06859870588468925 0 0 0
67 1 1.228425201566215 7.270584443508038 1.4520797567519814 0 0 0
290 1 1.2646428447505835 5.25386320787381 3.1538716591020752 0 0 0
327 1 3.118912346083831 7.299815610386075 3.2312614541141365 0 0 0
40 1 3.1967806638749225 5.253215247708814 1.2340194327137384 0 0 0
321 1 28.82655473546785 7.0363161346118 3.0055000018904474 -1 0 0
36 1 -0.35898353192275256 5.4922788038746635 1.4761063576617302 0 0 0
10 1 8.35402001369824 1.8330021590801562 -0.39673304488514083 0 0 0
301 1 6.961126314839823 2.8397435227075136 3.433343954348726 0 0 0
39 1 5.031279623381041 4.880861102194098 3.21882073386367 0 0 0
44 1 6.589931007387764 4.92107204228354 1.6196621192752638 0 0 0
300 1 7.055850914872187 6.815356517258429 3.5475502623253288 0 0 0
71 1 5.414780930880472 6.996880499742958 1.8193359971236247 0 0 0
43 1 8.606511356246967 3.4103010869028263 1.7016450603717561 0 0 0
75 1 8.43160753482582 6.6280519519897725 1.360857844773744 0 0 0
298 1 8.587330798385507 4.991898945463893 3.2377401413258187 0 0 0
48 1 10.633196958959333 4.997598196271266 1.4607154141115046 0 0 0
333 1 10.325652686500804 6.566318320090138 3.04566460639963 0 0 0
79 1 12.546175435429051 5.042016120314834 3.1837569011663835 0 0 0
46 1 12.250100345253182 6.492554049565515 1.7299413164773405 0 0 0
337 1 14.216354668074727 6.752878634884816 2.8904551038166124 0 0 0
47 1 14.393026277706186 5.047605571200415 1.5270578223677003 0 0 0
83 1 16.296857299575834 6.769011373482203 1.291785337048138 0 0 0
81 1 16.241252143678597 5.4467475441132684 3.4852994367206094 0 0 0
278 1 19.697256529456187 4.9718174244359625 3.0119594269765364 0 0 0
56 1 17.9605593659949 5.178662401826694 1.4992827381986955 0 0 0
341 1 18.241131707675702 6.6874443402674055 3.4221554822323372 0 0 0
88 1 20.10218216732245 6.448892622956483 0.8792657697553043 0 0 0
1024 1 25.84149362142331 26.661262448100484 12.394674530018301 0 0 0
87 1 23.228696450263055 4.797015308180492 3.6388000077147273 0 0 0
60 1 21.88650629403876 4.314926336355665 1.4161420913814848 0 0 0
91 1 23.547259482676417 6.827405455975868 1.6008399143209573 0 0 0
345 1 21.700065093271974 6.6043126812342186 3.10607992571306 0 0 0
186 1 23.355698698100984 19.771553824049636 -0.33615674270867457 0 0 0
109 1 10.394426082410284 10.505959308153319 -0.3323366908374906 0 0 0
1021 1 25.50981755643378 24.974231200759853 10.535893071422237 0 0 0
349 1 25.173408310642117 6.71141576715187 3.348139007568457 0 0 0
64 1 25.170718458885133 5.328034699474281 1.6072265844430347 0 0 0
95 1 26.87461168888746 6.9533321980023155 1.1606899418498864 0 0 0
318 1 27.094740019774232 5.3433557335622375 3.0706628661786946 0 0 0
322 1 1.2606751499125477 8.76092734091561 3.007533103728869 0 0 0
99 1 1.4184640344110107 10.52663554962627 1.7327422894381184 0 0 0
325 1 3.070292773115429 8.720554348337444 1.518503732310713 0 0 0
355 1 3.3777923564507804 10.41653591106284 2.9638490501688364 0 0 0
353 1 28.662320993208603 10.413481919427527 3.2705428098322487 -1 0 0
1022 1 27.14104281801064 26.6829114350758 10.456822744331186 0 0 0
326 1 5.128232558041642 8.88297473376068 3.4470862298598 0 0 0
329 1 6.833635817139689 8.968932061831834 1.5936533057031634 0 0 0
103 1 5.153535973968408 10.572920943037598 1.3722271770003172 0 0 0
361 1 7.2537518692938106 10.628588702502308 3.175983121059751 0 0 0
358 1 5.185120332967324 12.467316685428994 3.2489146429358406 0 0 0
108 1 6.844879787097701 12.457341005596877 1.6014437118409086 0 0 0
1023 1 26.781394183386126 24.67324560674127 12.923254679917992 0 0 0
80 1 10.396024064263763 8.455924866798037 1.8162434864000967 0 0 0
330 1 8.794685104912437 8.53121238267037 3.2415703787766543 0 0 0
107 1 8.83085035153833 10.370494398776025 1.46312892013506 0 0 0
365 1 10.461101146029506 10.551024909022045 3.1501400438930363 0 0 0
334 1 12.385092843029424 8.1795663673112 3.104228217128029 0 0 0
111 1 12.006389445175786 10.336132868515056 1.2572304396103404 0 0 0
84 1 14.085734522127156 8.84340396165222 1.4106544047718568 0 0 0
369 1 14.304791070392767 10.457115373775745 3.036601421330353 0 0 0
115 1 16.16029140815951 9.90237449725395 1.3442822577866946 0 0 0
306 1 15.987734651332826 8.471168575431479 3.168733961641777 0 0 0
254 1 27.43723512610528 26.876625293626727 -0.2574860956266374 0 0 0
4 1 1.2395665219722576 1.3495792834475524 -0.4693926549186615 0 0 0
82 1 18.249260699721408 8.305844261156427 1.6937373529422635 0 0 0
338 1 18.18501794912552 10.72819198807628 3.1585154277660163 0 0 0
92 1 19.741967029799795 10.328699600442349 1.598689675675681 0 0 0
342 1 19.842491965598473 8.088726330062274 3.1933967977379845 0 0 0
41 1 6.797305369646544 3.399619631761778 0.0012766653166832453 0 0 0
1180 1 23.033358473303974 16.053621543109685 14.02313025891061 0 0 0
123 1 23.37142213894568 10.393803561382384 1.3957227577946614 0 0 0
346 1 23.700720579199338 8.590206290653565 3.4258666707958487 0 0 0
377 1 21.919945996273295 10.2116016235841 3.306595024630494 0 0 0
89 1 21.507336035204876 8.655097171515031 1.6272332820128157 0 0 0
19 1 13.713595367972623 0.060080039250343886 0.12638029898059477 0 0 0
68 1 -0.45379279221284463 8.813712239794276 1.372332926322563 0 0 0
96 1 25.136778286392715 8.777979225848648 1.516413981535445 0 0 0
381 1 25.53540349472504 10.513707411936457 3.230383209870055 0 0 0
350 1 27.11288680323149 8.401979943119509 3.232077923454727 0 0 0
127 1 26.956588014014724 10.308193138859217 1.6216633537541685 0 0 0
769 1 25.288614637576842 28.763640102701988 11.178886650240015 -1 -1 0
102 1 3.412360157253927 12.275100700577607 1.3127439057714025 0 0 0
354 1 1.71834102134423 12.59431587482556 3.1142489496281884 0 0 0
158 1 1.0067661003823958 14.178522439901739 1.526216589278683 1 0 0
419 1 1.1171883335834683 16.028599534568905 3.2384348618961347 0 0 0
136 1 3.4123772225191407 15.750804719405064 0.952195400105663 0 0 0
389 1 3.053129645044826 14.511963250774794 2.8961043692008634 0 0 0
100 1 28.63485227961296 12.333524907133116 1.960907677798815 -1 0 0
993 1 28.639008319587457 24.89797890123891 10.830275114004749 -1 0 0
104 1 5.246249819600486 14.024461124631584 1.431851404597286 0 0 0
140 1 6.851531449679751 14.345806702425234 3.396138287410125 0 0 0
139 1 6.858100801645413 16.188330323304218 1.7476706956644406 0 0 0
135 1 4.985885103527213 16.00371911974149 3.185503025849541 0 0 0
112 1 10.116061615247741 12.32312451110815 1.1388635366687254 0 0 0
393 1 8.825412222371467 12.499134189938033 3.3266976779981956 0 0 0
362 1 10.515706790834374 13.507433458795093 2.787390462462943 0 0 0
397 1 8.534329177523343 13.995188309474191 1.2981842263012495 0 0 0
144 1 10.169880879763157 15.73065348730955 1.1496246191817794 0 0 0
394 1 8.657120016578903 16.137083330135333 3.2061273428652326 0 0 0
143 1 12.342615306016846 14.117026231503552 1.4413105558510224 0 0 0
797 1 23.243191296849496 -0.3333858876390785 12.40474725614844 0 0 0
116 1 14.419555011723817 11.938414451625759 1.1787960593657998 0 0 0
366 1 12.414320180463989 12.13716812480118 3.243612465575047 0 0 0
401 1 14.228421418975143 13.952344386758876 2.876007231350525 0 0 0
404 1 16.15167769858964 14.37693243752637 1.4666880243646212 0 0 0
148 1 13.932393679760347 15.96924414194476 1.4025884869467489 0 0 0
398 1 11.869274827005409 16.047632899689077 3.0433212369622096 0 0 0
1118 1 27.154792250223135 8.719113604638485 14.064004274465328 0 0 0
433 1 14.064200523484152 15.857804143361768 4.444248704172169 0 0 0
149 1 18.166706026200295 13.905487089747336 -0.3094027215694339 0 0 0
374 1 20.071745938888444 12.400750186780552 3.4832437225959394 0 0 0
435 1 16.165925745755356 15.865438706260612 3.216501691889208 0 0 0
370 1 16.07040281505359 12.43550259539517 3.378570453715977 0 0 0
120 1 17.587942983412955 12.248749159970192 1.4487321598707568 0 0 0
405 1 18.18498281672588 13.876357533448044 3.1476928872803107 0 0 0
151 1 19.862270874353342 13.64641108397413 1.3003052043977519 0 0 0
406 1 19.955329703368424 15.554013138689278 3.111633176410644 0 0 0
152 1 17.948263791409985 15.824078835450624 1.192925953430753 0 0 0
795 1 21.96696172580597 -0.3977365914696159 10.483690651449127 0 0 0
988 1 19.96111981168513 23.73567301979676 14.015958645752459 0 0 0
221 1 25.30406130065344 21.536200778874214 -0.015352106614951178 0 0 0
124 1 21.645746773970085 12.125637381141148 1.657645557299786 0 0 0
378 1 23.502171999800176 12.486501205013615 2.891747704742352 0 0 0
155 1 24.01528150516412 13.92560977517929 1.1061796547314984 0 0 0
409 1 21.719236553230118 13.818319580468776 3.812375714907125 0 0 0
183 1 21.895630208239208 15.056459953050735 1.6917484110202685 0 0 0
410 1 23.401441328016613 16.550140793812528 3.1088726894909198 0 0 0
1255 1 4.812454844705503 26.782345360656148 14.003518354476908 0 0 0
132 1 28.589345496950745 15.916352455004908 0.9318271264017715 -1 0 0
385 1 28.78034448332391 14.2430645305664 3.305542402576903 -1 0 0
157 1 25.39736895731557 12.163214206677454 1.456231260264049 0 0 0
382 1 27.39157305358089 12.372190816789743 3.8460067590087252 0 0 0
413 1 25.385434656842705 13.999186041134186 3.252723393111211 0 0 0
159 1 26.825409660394012 14.209356647692822 1.3189093773687637 0 0 0
160 1 25.225774386389578 16.023948601044083 1.1001497834237772 0 0 0
161 1 1.0433182654271402 17.534541699818398 1.0655752466920678 0 0 0
386 1 3.0692945107922123 19.76987979125428 1.4018526473312145 0 0 0
390 1 2.788884136542694 17.531917034457333 2.652572970128438 0 0 0
418 1 1.2766016371647375 19.593359916206953 2.899221941808135 0 0 0
163 1 -0.2887961239897769 19.72123548649478 0.8170958735622522 0 0 0
417 1 28.84267347516299 17.75825061566425 3.0713066061535987 -1 0 0
539 1 23.66707054566405 28.685372950184714 9.307638459179728 0 -1 0
197 1 3.5691484310497072 21.890797396507594 -0.43451289326576265 0 0 0
167 1 4.7707632371374125 18.129639988018013 1.338639900825742 0 0 0
428 1 6.681686237314114 17.95692178057027 3.1734400953415656 0 0 0
199 1 6.44260049729739 20.076965418627868 1.2524171083247297 0 0 0
424 1 4.6184392635903535 19.22855094506662 3.337280578488306 0 0 0
1206 1 18.093859325930293 17.972261137819086 13.781803938288855 0 0 0
425 1 8.785300671373207 17.610328862255226 1.3803185891117857 0 0 0
426 1 8.498820085279252 20.0372678133776 3.2439096239783898 0 0 0
429 1 10.395087047384267 17.985719661174418 2.8699468419280105 0 0 0
176 1 10.371625266330843 19.48672948330541 1.2237308298778047 0 0 0
175 1 12.29346367484519 17.521798717698136 1.1887509312060873 0 0 0
86 1 19.74745357781523 8.588856987252345 -0.4389117342433451 0 0 0
1018 1 23.629179693355336 26.789590094189688 10.579243184851409 0 0 0
430 1 12.522073994677738 19.695489509556353 2.5512775971831476 0 0 0
402 1 14.253625202044848 17.865078124856392 3.3761548877401313 0 0 0
180 1 14.675692636528243 19.833791360947632 1.090033317263085 0 0 0
434 1 16.067528816785366 19.689804504311677 3.002924106598062 0 0 0
179 1 15.6692728107272 17.665511260053304 1.2153655948853592 0 0 0
1020 1 21.579150820053936 26.71912683967011 12.509531308084668 0 0 0
1273 1 23.497772198908542 24.958698561998983 12.508303212885085 0 0 0
437 1 17.817185265171553 17.93674404049157 3.1882172600125176 0 0 0
438 1 19.436802696340326 19.713398204798583 3.040679176203893 0 0 0
184 1 17.924723558300784 19.343798576826206 1.2780984357525473 0 0 0
182 1 19.474768871084642 17.420768392062687 1.4824821448637189 0 0 0
187 1 23.031021438594475 18.047076724524842 1.518546175151004 0 0 0
441 1 21.118598321363464 17.500747085960317 3.141882581658818 0 0 0
188 1 21.164035590390647 19.549533676691276 1.388347424242551 0 0 0
442 1 23.480628770815287 19.609665180937426 3.111481370862037 0 0 0
1017 1 21.88460915100957 25.17988428230763 10.592735321905923 0 0 0
414 1 27.23859097622433 15.899119755772077 2.9554952152792557 0 0 0
445 1 25.814232641126548 17.876191829194084 3.339976582411051 0 0 0
192 1 25.062905096445594 19.79258038700364 1.29311108121371 0 0 0
191 1 26.95723875566938 17.733883177044135 1.3104521399532538 0 0 0
446 1 27.451629797652156 19.596074470912207 2.6545012104085886 0 0 0
126 1 27.31691617574145 12.078112920114215 -0.022660333427137636 0 0 0
452 1 1.1808979805067377 23.685358431658635 2.7389073963316393 0 0 0
223 1 1.7404550697229184 21.61567848668693 0.969350618662506 1 0 0
453 1 2.315140100609926 21.60800993614601 3.275091558920047 0 0 0
194 1 3.2793241807663605 23.457068696087013 1.3099690914235442 0 0 0
195 1 -0.1516894435249263 23.33115626382612 0.9738127054355803 0 0 0
1013 1 17.61908160111315 25.374672102238954 10.371484651763474 0 0 0
200 1 4.567470041575847 21.60934944035253 2.0396952451211083 0 0 0
204 1 6.718023445310682 23.157158206568713 1.6226153270830377 0 0 0
454 1 4.771205121931073 23.92664278086746 3.1088489613731176 0 0 0
457 1 6.481116486663705 21.48456031711722 3.157881730952549 0 0 0
150 1 21.62848047040464 13.63750805033912 -0.08694226811207773 0 0 0
172 1 8.336746607526718 21.57871726919447 1.2957752781076515 0 0 0
458 1 8.848007378156337 23.232342239824327 3.167238875547693 0 0 0
203 1 10.475291629841841 22.885181274984124 1.4602245723410798 0 0 0
208 1 10.349020573224736 21.18765837300646 3.110918984796849 0 0 0
462 1 12.678582025109751 23.135146467812998 3.613481688980264 0 0 0
207 1 12.429086243079047 21.54383270304835 1.4665769525135115 0 0 0
212 1 13.746991173346418 23.427354593812623 0.7041181117499211 0 0 0
465 1 15.06070276725778 21.772339093813496 3.1433982528737463 0 0 0
466 1 16.69000496422853 23.619061846678 2.7767003229070095 0 0 0
211 1 15.90387483460891 21.899715660748367 0.998445736603716 0 0 0
1015 1 19.469415493294342 25.25499971731144 12.231151939770116 0 0 0
216 1 18.070936920117052 23.368905704025284 0.9123619911339971 0 0 0
469 1 17.53675105850326 21.270880817720215 2.9719164434663585 0 0 0
215 1 19.701817763414283 21.695031511325084 0.6364850833936322 0 0 0
470 1 19.229492148128 23.03695357597742 3.1372466395245096 0 0 0
247 1 19.753916951007763 24.906352488613862 0.9205784635871119 0 0 0
785 1 17.729331881121208 27.024347967445294 11.917299194850402 0 -1 0
219 1 23.164530714318076 21.428389736237612 1.0139329125224739 0 0 0
220 1 21.664868875334534 23.121358643852876 0.6386722288832054 0 0 0
473 1 21.166117477610687 21.602151213861564 2.757007191972936 0 0 0
474 1 23.288160806693682 23.11917146564482 3.0381165310166303 0 0 0
449 1 -0.2620221113592096 21.501998242224047 2.7319888665723826 0 0 0
224 1 24.5948508320723 23.380076264492693 1.3694402021266734 0 0 0
477 1 25.165534529709777 21.501448560128704 2.920610394417295 0 0 0
196 1 27.245256528636144 21.682164457664644 1.3209849056017946 -1 0 0
478 1 27.438869421560916 23.551623505318705 2.658214541551584 0 0 0
509 1 25.399343382870015 24.984648739427058 3.1794075123244276 0 0 0
198 1 5.131973204950123 23.495133344994386 -0.31166935902070525 0 0 0
1014 1 19.738360008536986 26.89035213051341 10.247767196584247 0 0 0
242 1 16.025066370540316 27.95974121514744 -0.2643642376077338 0 0 0
263 1 2.784726792521595 -0.4494292989542797 3.6290721142473457 0 0 0
255 1 28.563528068705097 -0.25539049870905817 3.5272304934181253 0 1 0
485 1 2.872878773827995 25.31289996066718 3.3085202184872444 0 0 0
227 1 1.4574395482682727 25.11860491409744 1.1475683794176075 0 0 0
484 1 1.1490595515837168 26.91817153345484 3.340367141955567 0 0 0
232 1 2.8348224741097376 26.900905252730958 1.1240549593933882 0 0 0
450 1 28.791316448544723 25.08441269988624 2.9287899342479067 -1 0 0
492 1 6.708310728126428 -0.11747436140948697 3.3450941121890674 0 1 0
236 1 6.403685702986092 25.063973833452792 3.525249501676127 0 0 0
231 1 5.271139941212116 25.59269953991836 1.369825520559547 0 0 0
230 1 6.568894023866833 27.952743261322393 1.2123702259428448 0 0 0
486 1 4.710956559172257 27.15311023809861 3.5736756234892706 0 0 0
90 1 23.51004127151847 8.335882537054815 -0.3165063285416021 0 0 0
11 1 8.817174998108875 0.06579181441519921 1.6419279844439592 0 0 0
269 1 10.438985499357084 -0.231551505098057 3.4788770945030314 0 0 0
235 1 8.001730871847043 25.238679357370017 1.7996888618142712 0 0 0
493 1 10.49120207854093 24.90637154322951 2.537279015778812 0 0 0
234 1 7.936844681068541 27.3469412318867 3.1330063884580204 0 0 0
240 1 9.669566047097298 27.214793695313023 1.4238242059319504 0 0 0
239 1 12.742780013802415 25.408589718874865 1.0786366245663725 0 0 0
1975 1 20.214240799503578 15.486254980377977 0.27677662665661396 0 0 1
147 1 17.73811202971532 10.682970763243887 -0.11838576449929783 0 0 0
15 1 11.808319673487372 -0.031208311767872254 1.825680193039895 0 0 0
273 1 13.79587680850298 0.010081586093326433 3.289796004424366 0 0 0
98 1 1.37118472948916 12.093837754353954 -0.17601430156361858 0 0 0
494 1 11.94756230325968 27.39203856556149 2.7370584852506608 0 0 0
497 1 14.357757842739412 25.00923809183261 3.016164653972144 0 0 0
244 1 14.3511172420849 27.297341990471583 1.5263379939935415 0 0 0
243 1 15.993264488541985 25.455294413332048 0.5094913047177672 0 0 0
1241 1 21.244395950920424 21.660450940298947 13.626139310323731 0 0 0
498 1 16.162569467575203 26.83463900851975 3.2235194516617147 0 0 0
501 1 18.10547111802207 25.46606211541322 2.668027299525179 0 0 0
248 1 18.091748317243184 27.10390002065895 0.7270171159036969 0 0 0
503 1 20.206205076760106 26.69197083169842 3.022661671800539 0 0 0
27 1 23.564688312834452 -0.12233397428639459 1.4431873160630748 0 0 0
281 1 21.453440682860972 28.741616038610807 3.177694251695367 0 -1 0
505 1 21.248374137757224 24.53070076947322 2.7031248958082785 0 0 0
506 1 23.44195382159163 25.573437247720463 1.152784303774496 0 0 0
285 1 23.59057461484467 27.413441946747856 2.852308394526672 0 -1 0
252 1 21.80810204007174 27.346755682610574 1.4171057344304416 0 0 0
1007 1 14.037128393205734 27.010282381979312 12.484600593609757 0 0 0
974 1 12.046837665353987 25.223340313314935 12.438829099370603 0 0 0
228 1 -0.06738855222968371 26.802938016752545 1.5206262666838395 0 0 0
257 1 27.287457880143887 28.664712914117658 1.415255551935747 -1 -1 0
511 1 27.06896249113438 26.78499051945376 2.984670725210592 0 0 0
222 1 27.161615510205426 25.016917722812018 0.7605727666889761 0 0 0
256 1 25.366667118509987 27.017448008125804 1.329416921975364 0 0 0
237 1 9.779072890750333 25.095360053442914 -0.027301057637117987 0 0 0
77 1 10.275564543383659 6.76351673601277 0.011646135659512558 0 0 0
516 1 1.3034518527481445 1.5033032506247967 6.833567863170815 0 0 0
291 1 2.9451594740110667 3.2971284851799454 6.738951886427266 0 0 0
547 1 1.3968641712738121 4.025482675790632 8.704892965485262 0 0 0
549 1 2.837100988886095 1.7035104874957554 8.827611881195525 0 0 0
258 1 1.2866417247575548 3.2867672603925975 5.118428155978774 0 0 0
546 1 -0.29238062282972377 3.510139080096226 7.097685713361555 0 0 0
514 1 1.143775714093173 -0.37174402562513365 4.895266753286716 0 0 0
548 1 -0.47443059366951346 1.6577503879344713 5.026722090297643 0 0 0
545 1 28.781464706341787 1.6519056361014464 8.552684576294338 -1 0 0
517 1 2.993141999855326 28.657358748639478 6.911239449759625 0 -1 0
264 1 3.360595806097513 1.472015516603776 5.3420536407516215 0 0 0
297 1 4.91108049329223 3.307959913070904 5.5292347233182015 0 0 0
266 1 6.584889387814233 1.536741838775996 5.309322646046484 0 0 0
518 1 5.138829146054228 1.6348305750092567 7.1333640303468915 0 0 0
524 1 6.561224574496026 1.5089865438096655 8.938138393053066 0 0 0
551 1 4.8942651921586435 3.501526643867276 8.4728677624352 0 0 0
268 1 6.690552594436605 3.395805682226157 6.96880996227862 0 0 0
265 1 10.228961573162483 1.443003557647778 5.487665559099728 0 0 0
299 1 8.335052263261627 1.2288925310742729 6.995091865016794 0 0 0
528 1 10.324721385587388 1.1929578821699307 8.507927360364976 0 0 0
272 1 10.062872245515447 3.1643114720424026 7.2017791121304535 0 0 0
522 1 8.360804164415606 3.104574539162275 8.848355518667963 0 0 0
295 1 8.570295489458303 3.196282251449168 5.325126470322253 0 0 0
746 1 8.401564735997347 -0.2776936369998676 4.719030225606806 0 1 0
303 1 12.03666277497918 3.0833583866716645 5.316990145824439 0 0 0
562 1 12.300675464883259 3.0331536699769472 8.717421767199832 0 0 0
526 1 12.046254691558424 1.2066325653393537 6.994044621801812 0 0 0
276 1 13.996775527416226 1.7487149640366018 5.27389730588248 0 0 0
532 1 14.223449529790102 1.803359975767342 8.596360423664557 0 0 0
561 1 14.651076752260245 3.2577252182982517 7.090527217739524 0 0 0
530 1 15.620947556728712 0.7893417317462621 6.662098834913931 0 0 0
275 1 16.24599070428773 28.270269727797167 5.072441276696733 0 -1 0
563 1 16.05706532974513 3.1944289986397196 8.730814993148497 0 0 0
280 1 17.732338485360234 0.8845595745494284 5.271605279040588 0 0 0
534 1 19.620115655220246 0.6933102491675833 7.06002746986999 0 0 0
565 1 17.782556778922242 3.117584245296084 6.780479082212056 0 0 0
536 1 17.78391040944782 1.0874453710985637 8.29862981229611 0 0 0
567 1 19.442198404066545 2.49689366761731 8.662896758562106 0 0 0
540 1 19.326814213290465 2.719409659608656 5.034803702951008 0 0 0
535 1 19.89497636325238 28.795601865962613 9.003920635098638 0 -1 0
284 1 21.031539972286478 1.449287644592484 5.272728968631043 0 0 0
538 1 23.207738905085755 1.2453409078617614 6.775964784818504 0 0 0
315 1 23.294289868097938 3.4329684824999265 5.326280666176215 0 0 0
1079 1 21.37444889689456 1.016427409218787 8.937924864645128 0 0 0
569 1 20.976092166827787 2.874035750433653 7.176103781195868 0 0 0
571 1 23.73950612955332 3.2074761584711586 8.522028386204964 0 0 0
283 1 23.108452334040756 -0.48782027426394947 5.050500755863038 0 0 0
537 1 21.355602325042184 28.503395068206984 6.875747681163419 0 -1 0
573 1 25.352960545183056 1.5661686401174415 4.924134641167362 0 0 0
544 1 25.383506204421874 1.4864453267676712 8.48694899743226 0 0 0
320 1 25.46965096341034 3.3614799552892816 6.807301257036968 0 0 0
542 1 27.027332190401705 1.9012828913493411 6.768951306193863 0 0 0
319 1 27.120136823769972 3.723778073302295 4.746106737744583 0 0 0
575 1 26.967042352367077 3.297604521263499 8.72571917264702 0 0 0
510 1 28.76179991281114 -0.3508507198625459 6.628129291390593 0 1 0
292 1 1.1316847699246122 6.984705246073346 4.862312389253462 0 0 0
584 1 1.2481039471975663 6.92407865661988 8.626332823361786 0 0 0
581 1 1.2329645607449482 5.427400502125038 6.836701930782413 0 0 0
296 1 3.0589535179859273 5.099904891896984 5.191494168235759 0 0 0
552 1 3.2077164596770964 5.132650208245244 8.105575648098261 0 0 0
289 1 28.798249275182176 5.370469278377747 5.276659918993135 -1 0 0
579 1 28.698336651699076 5.292916164236459 9.031590784008108 -1 0 0
550 1 3.0377182423584026 6.84024176587339 6.547773483051393 0 0 0
554 1 6.622676316898904 5.103997412557489 4.837328713152676 0 0 0
294 1 4.712238009384135 6.75455614814299 4.854672707644165 0 0 0
553 1 5.182828248943994 5.33546069854168 6.719643948009317 0 0 0
332 1 7.017464705836694 6.8584848919136885 7.109198021159909 0 0 0
583 1 4.662935396579644 6.9766834730218505 8.754284548021923 0 0 0
556 1 6.839258979142105 5.035127563579042 8.932141548315013 0 0 0
331 1 8.772112010160516 6.847286040680376 5.263362854841829 0 0 0
304 1 10.606725438488144 5.139224699472953 5.127529430766431 0 0 0
557 1 8.285031340620204 4.565865206209578 6.933782218247683 0 0 0
589 1 10.412160982947741 6.828339979685488 7.120491483644492 0 0 0
587 1 8.546328094645471 6.978143543782938 8.87857526689026 0 0 0
810 1 9.977830872512568 4.947064625720744 8.666518487559197 0 0 0
591 1 12.043116227887138 6.660263766295869 8.713607067884753 0 0 0
335 1 12.639483848035376 6.727862395125906 5.004978400440094 0 0 0
558 1 11.993853075389556 5.029608518033095 7.16450549002966 0 0 0
308 1 14.106379812833387 4.8809523576632685 5.552503274717833 0 0 0
593 1 14.065240539860685 6.551848181883662 7.138076683932189 0 0 0
311 1 16.03400141798013 5.4571985968720975 6.531118674490539 0 0 0
564 1 14.044242138973 4.981721080717443 8.661141436616141 0 0 0
568 1 16.136966141254337 6.817879887541405 8.88657972523557 0 0 0
312 1 15.941192890818812 6.952660164323935 4.931926146853818 0 0 0
343 1 19.921570072181517 6.536127269494644 5.177062044368 0 0 0
310 1 17.874581864921925 4.829842722811558 5.079443504395629 0 0 0
597 1 17.841755347451244 6.932617250475798 6.937537826678001 0 0 0
566 1 19.42954769658258 4.670666519252042 6.889578427777671 0 0 0
599 1 19.621153920342017 6.876129923300761 8.617329688985745 0 0 0
790 1 17.869279899860196 4.967158444008269 8.500904162982364 0 0 0
316 1 21.232183784503313 4.803952725704706 4.992251321301456 0 0 0
347 1 23.36059621596737 6.761529396676044 5.299625459686541 0 0 0
601 1 21.56523757924117 6.68039239499288 7.0159484785648045 0 0 0
570 1 23.316994650231806 4.936937339908523 7.029789328669041 0 0 0
603 1 23.58509737470685 6.926692949946222 8.431354824546304 0 0 0
572 1 21.183973261364155 4.75655472663854 8.671847905261297 0 0 0
577 1 28.573290177716345 6.86850336903279 7.0116630526101265 -1 0 0
351 1 27.193360984887857 7.083135400217971 5.195204468722713 0 0 0
576 1 25.39099741518819 5.192527661152289 8.666204146279064 0 0 0
314 1 25.074109835923743 5.132698496880338 4.991879469954481 0 0 0
605 1 25.521365459889925 6.832447728082101 6.980782912202787 0 0 0
574 1 27.055001997003682 5.084479497857635 7.105628437919255 0 0 0
607 1 27.13530475906842 7.014583456578956 8.912740255982447 0 0 0
578 1 1.434084203938412 8.74185777717758 6.678693085713285 0 0 0
328 1 1.486311688678249 10.747981278222191 4.53285823672528 0 0 0
323 1 3.2584653681118474 8.974624012356271 4.908536894136793 0 0 0
611 1 1.5462019661481765 10.642993876088958 8.62025065553188 0 0 0
357 1 2.88459719230974 10.914883466837443 6.45989093450764 0 0 0
615 1 3.261937261115701 8.84414393704122 8.479622765976092 0 0 0
356 1 1.1758710428772805 12.784762425175245 7.001151314476604 0 0 0
612 1 28.735620045493036 12.700148916216671 8.591522789113217 -1 0 0
582 1 5.054004275373744 8.506441082078725 6.638089635413591 0 0 0
585 1 6.897277639814889 8.618439489449342 5.091022716834332 0 0 0
359 1 5.244272380520075 10.685638779504307 5.145641336458115 0 0 0
613 1 4.7921312666293705 10.520056125767908 8.426618692707002 0 0 0
588 1 6.501016966376184 8.75964736931775 8.629689153232249 0 0 0
873 1 6.878817339450973 10.494538000911648 7.177801907024176 0 0 0
364 1 4.944282073059537 12.457754943071802 7.2218838913741505 0 0 0
620 1 6.781659414682476 12.189847941388228 8.80290454638149 0 0 0
336 1 11.175190339122414 8.694376541275782 4.77496544316552 0 0 0
363 1 8.826584262714531 10.74047785943917 5.112033723158977 0 0 0
586 1 8.563512881670746 9.095218912982562 6.943321681330488 0 0 0
621 1 10.549246636849702 10.117500315295333 7.2093637873413146 0 0 0
845 1 8.755233874384619 11.129619338700298 8.509341448251865 0 0 0
592 1 10.453895234179026 8.412389595702646 8.723807502765768 0 0 0
340 1 14.159490787363744 8.410162406462213 4.675680053404606 0 0 0
367 1 12.769799872061753 10.142555045560316 5.132727527942544 0 0 0
590 1 12.257265011689636 8.654342558726139 6.775617262223586 0 0 0
623 1 12.420374757693917 10.421621287408474 8.664450908255287 0 0 0