LAMMPS data file via write_data, version 29 Oct 2020, timestep = 150000

2016 atoms
1 atom types

-0.32092692477637286 21.584926924777903 xlo xhi
-0.32092692477637286 21.584926924777903 ylo yhi
-0.7488294911424482 50.36482949114254 zlo zhi

Masses

1 58.933

Atoms # atomic

699 1 2.194983451674929 0.9279357759949713 3.027607648620833 0 0 0
830 1 3.3636574943287547 14.99211533312417 -0.644228089314863 1 0 0
1834 1 0.9063336825572068 3.038212067705916 3.5684080983455155 -2 3 1
1764 1 0.7523780899653523 21.09403265993544 1.769764089609449 1 1 1
582 1 4.475296325805038 0.3758076951312709 4.0726314759189375 0 0 0
1253 1 7.004337488574318 11.550622776012242 -0.3809892426302462 -4 4 1
424 1 2.5993199415869084 0.9419607033596509 0.7215853407318324 1 0 0
572 1 4.8949042867697115 3.9928268079684512 0.70820503983218 1 1 0
36 1 4.376151992976603 1.7050906934768215 2.2356392323959553 1 1 0
654 1 5.277351419093099 3.802097528491079 2.968215596622853 1 1 0
1440 1 6.881452984385427 5.3713469360953345 0.18200328060047744 1 3 1
454 1 6.941113685124718 1.4285807581639967 3.045205687982927 0 0 0
50 1 7.385149716983044 3.4949065353563626 1.5561639283359958 0 0 0
195 1 7.780067439793077 21.31770785226275 2.714183527149583 0 -1 0
1212 1 6.193688589859878 1.6871805843825411 0.8076278084080597 -2 2 0
1524 1 10.121516829799234 3.6941005109561766 4.024139056370848 1 1 1
438 1 8.960433537793485 1.6471105279025169 2.004184440291567 0 0 0
380 1 8.553347078163938 1.8315558070296825 -0.29471400082999016 0 0 0
625 1 11.097689201884984 1.7506962004728122 2.8909136144129954 -1 0 0
458 1 10.45635592391279 3.175580091130881 1.3197609230052074 0 0 0
349 1 10.337847641079145 21.532060147593974 1.1460043246550309 0 -1 0
1815 1 4.891055501182772 11.043640985981048 11.533454292577723 -1 1 0
362 1 11.85947442069374 1.3183457040164355 0.6093011786166813 0 0 0
1399 1 13.934865700677985 0.6330255667764004 1.5313232800700827 -3 -1 1
1517 1 13.006099213620967 3.1892433145127135 1.5261391069492771 -1 -1 1
1787 1 15.962455317185963 2.821331093679002 1.0869996019727843 6 1 1
1030 1 18.34046671305458 0.9258678518890744 2.755443806106461 -2 1 1
1104 1 18.21484610629423 2.8251466438660224 -0.6719713595478662 -2 1 1
805 1 20.3032397467085 2.8316422261066325 0.5067986062716996 -1 1 0
1446 1 0.18128671939618923 2.4584419518832448 1.7189159514184822 -1 3 1
180 1 18.899123286749315 0.1707418295403525 -0.3784296374109872 -1 0 0
144 1 3.461453971301455 5.2487083753014385 2.1281452224458253 0 0 0
387 1 1.3432527558549237 5.266343771329458 1.5793790278900475 0 0 0
829 1 2.508784243518817 7.486288523827428 0.9566143939597052 0 0 0
1542 1 -0.24821323792529926 6.708045910407321 2.2894782018079596 0 2 1
1784 1 20.63826253153866 4.7197807438280055 2.2604243905577563 2 3 1
95 1 13.485377561143162 5.615779444742975 -0.4551851254367386 0 0 0
1004 1 2.1345020447941714 7.571781479502978 3.5268361651122078 0 1 0
723 1 6.352843659052497 9.462080588342653 0.6423210672275472 0 -1 0
46 1 4.829863859442152 7.48350757154743 0.8017649959901236 2 0 0
664 1 4.508654024294536 7.21158000427333 3.892519109939122 0 1 0
58 1 5.7663482992232105 5.938548156773778 2.064084652695248 0 0 0
1751 1 8.22865575024609 5.459060440232551 2.5336690013446543 -1 -1 1
277 1 9.58958182849687 8.029009421810079 2.938304838768316 0 0 0
1097 1 8.524263809875338 9.405667744614556 4.475989465445194 0 -2 1
394 1 10.615306455407573 5.994163349689703 3.7369449974310456 0 1 0
1424 1 11.715970153407119 5.043890925241094 1.5836758102880633 2 1 1
15 1 11.953855628419918 7.799299716959764 1.7831218885663378 0 0 0
446 1 10.015201195278443 6.430086771351084 1.0525385593352674 0 0 0
1826 1 14.57899218843995 4.632793139512451 2.1500027597285705 -1 3 1
1261 1 11.32029246829049 6.82115356096328 -0.7095028997123202 1 0 1
817 1 14.67549537536837 6.9386762274410865 1.3244919354867521 -1 0 0
98 1 13.020950667108156 6.858910090932147 3.8196132683613397 0 1 0
731 1 4.580768213296353 21.54620966999541 -0.18282651258120608 0 -1 0
333 1 16.815870538367673 5.461797677620578 0.9793833237278589 1 0 0
1720 1 18.051479166406075 3.2000372673331823 1.710175767622768 -3 4 1
1307 1 20.295950958036865 6.910742050246175 0.1174603775970432 -2 1 1
688 1 19.313260502856924 8.872885317972004 0.7234200964885913 -1 0 0
87 1 19.05118036114913 4.788103318040216 0.2145905932529043 0 0 0
663 1 1.3950861815155862 19.202162462547864 10.906880302948657 1 -1 0
790 1 17.054589051613497 7.66881303664981 0.4942640962349032 -1 0 0
126 1 4.508790813723816 2.003703615315779 -0.2941643668346119 1 1 0
399 1 1.0657102660540823 12.153327458560387 2.7630591747387023 0 0 0
247 1 3.00566374534914 10.922338497164636 2.374496919784223 0 0 0
888 1 3.3840595873783106 12.478499226366884 0.4030766948928364 0 0 0
592 1 1.5485955657080142 9.517147320706677 1.5617730713569413 1 0 0
1263 1 3.8881526167057023 9.673212914259501 0.5902279802401789 1 -1 1
134 1 1.0423814543546823 11.664541337063975 -0.06407570175899358 1 1 0
293 1 11.148772216769888 19.628943693655067 0.2064771956143402 0 -1 0
1141 1 4.888436709120458 9.236420062445687 2.9262168014775067 -2 2 1
1654 1 16.707849359920797 20.243711323693596 -0.5288945745344162 -3 0 1
1637 1 8.181791393296642 10.095525707723715 2.369814937750077 -2 0 1
343 1 18.832728925844535 20.28369995120413 11.356767923536026 0 -1 0
718 1 6.994326026343681 7.914531607430099 2.943267797382878 0 1 0
1447 1 9.055135723104224 9.65695938182679 -0.05742260107365171 -1 2 1
228 1 9.459958149390493 11.76257242289144 1.0612573296397327 0 -1 0
148 1 10.708150957333757 9.791995309457471 1.466410540162737 -1 0 0
60 1 2.312902568169699 11.821988201111802 11.902418912902831 0 0 0
933 1 0.7517778680534624 9.507287520704086 11.421909198278883 1 0 0
1202 1 14.918996926634211 18.86727197851623 0.39657788416508244 0 2 1
154 1 15.235858386590042 9.263722603031166 0.10805414377820599 0 -1 0
1945 1 13.472980521408385 9.2238079654896 1.6024671968980555 -1 -1 1
1258 1 11.913259955947783 12.082720253937696 0.12962082038612754 1 4 1
48 1 14.911409237644076 11.85358610903686 0.6923569312593882 0 0 0
1664 1 16.009651434639533 13.865592842718952 0.645469458627485 3 0 1
1334 1 17.125843335087502 12.637267334220942 2.127113385296016 -3 -1 1
1796 1 15.352661992942599 8.573158572993794 2.8188830469645816 0 1 1
1259 1 10.95035050106723 0.38822708248549953 11.770563625717905 2 -1 0
246 1 21.517322002666734 9.368341929126576 0.3992123093874109 -1 0 0
1132 1 21.517204534462618 12.906720036257024 1.1406724439004743 -2 -1 1
374 1 16.92966282040894 10.025330853464107 1.367761077779869 -1 0 0
1861 1 20.26657113111961 8.577949005774506 2.7646786417260705 -1 -5 1
1964 1 21.038582696170433 10.852502014608682 2.4924450865697443 3 1 1
537 1 3.1632543677130647 9.561616750876013 11.552112649417328 1 0 0
68 1 3.229251793436936 15.483355699308865 1.7495798450290927 0 0 0
204 1 0.8005555340559061 14.432636550984302 2.532091005132319 0 0 0
375 1 0.500291971304188 17.47372572829434 2.0062191832754475 1 0 0
346 1 1.7108651604778857 16.54317867428774 0.6041059703121403 0 0 0
92 1 1.7169252653164273 13.835072494841816 0.5473040395462809 1 0 0
1075 1 7.5367597912463475 13.076552926996424 1.5487309455686846 -3 5 1
432 1 6.4095041202642005 16.326960517491994 1.5282221971737453 1 0 0
1039 1 19.81275561701555 10.940932689851897 0.7690341305796708 -2 0 1
207 1 5.282206421468251 14.235801721713445 1.7804594907624778 0 -1 0
179 1 8.281959983727377 17.309433849159593 2.4230359976645794 0 -1 0
108 1 8.520941696129368 15.356372770679512 0.9598023220195342 0 0 0
235 1 4.9964867002188385 15.531791400007027 3.834962192159761 0 0 0
329 1 11.345151965779127 12.313202259750906 2.3384126057984163 0 0 0
214 1 9.357396161811492 13.390222970445027 2.8939219160865144 1 0 0
201 1 10.503741912494545 14.619288259178838 0.5215764615129612 0 -1 0
1499 1 9.986563445925661 15.623512313735732 3.0819495334751283 -2 1 1
1754 1 12.231045924058959 15.185172097760665 2.484964450517941 0 -1 1
1466 1 12.438852809036849 17.30432825484562 3.3222210813976183 -3 1 1
1461 1 15.525890624481727 14.900371624916353 2.9926003041302662 1 -1 1
1321 1 13.796577972103554 16.159107515070062 1.0810455847312335 0 1 1
72 1 14.030816979512576 13.23262908887805 2.6110763555017074 0 0 0
1904 1 16.20094108140612 16.395967831730193 1.175802337173317 0 -2 1
322 1 13.446512771438005 13.86590973440855 0.7506831314245852 0 0 0
1817 1 20.00166927384937 17.404618272760416 1.8035029812914884 -3 1 1
1293 1 19.24505405703216 13.325632566781497 1.2212050156223628 -4 5 1
1346 1 21.408316444334222 15.701337980333268 0.3939856603977725 -4 -1 1
1153 1 18.616747566102987 15.758823864619803 1.1531038029053962 0 1 1
85 1 19.89605439239646 16.83518151906986 4.04708342885443 -1 0 0
1879 1 20.37821332157146 14.944143629767616 2.5038000294553706 -2 4 1
1840 1 2.307325653664671 19.095280154825854 1.6700008248768752 1 3 1
1383 1 3.5004147835568125 21.168130336930954 1.8582513342233717 -2 0 1
234 1 1.6679570966300197 18.214171944132886 4.021371880208726 1 0 0
35 1 4.259320806006993 17.305474679467004 2.2795341093440498 0 -1 0
487 1 3.877250122215292 19.780393234707823 3.7836763422336537 0 0 0
1391 1 18.22129188228457 15.085716013975624 11.589622553200185 -3 0 1
635 1 18.58420598493589 17.505385703701005 11.332112171766417 -1 0 0
559 1 -0.21741987479550673 4.57583978394077 -0.08107803190053187 1 0 0
657 1 3.1671468735029 19.745375106347332 -0.6278084676800595 0 0 0
64 1 5.7479635955930055 21.47253563324509 1.6562829335036038 0 -1 0
303 1 4.70441692550582 19.190960786186977 1.1735071467452942 0 0 0
1984 1 8.001760725373913 17.629839370235484 0.042663426387393844 1 4 1
490 1 7.088674216914828 19.576428025901595 1.398958840244097 1 0 0
302 1 13.563531737735369 13.106679111437177 11.321985962571885 0 0 0
842 1 8.068059755552333 21.26318530187614 0.5006067545036139 -1 0 0
1284 1 10.28392648334962 17.165595326146743 1.5374026244539754 0 2 1
324 1 12.378401560913542 17.980287601357468 1.1835793380061914 0 -1 0
336 1 9.471110063373409 19.391471605065558 2.4161401305172765 1 -1 0
1128 1 9.89633294489986 17.808064276786432 4.42413576598943 -1 3 1
104 1 11.61585927855453 19.393590593769286 3.266726586453683 0 0 0
162 1 18.85515559948146 19.671299299527302 -0.2783260697985843 0 0 0
76 1 17.249677309774427 17.59015977052894 9.34243096983128 -1 0 0
729 1 16.036999217270207 21.044189307499675 1.7340598056800753 0 -1 0
268 1 16.894660701249112 0.8282537623791908 0.6044485219907048 -1 1 0
1483 1 14.90506215811295 17.510402218018857 2.7050273808832115 -1 2 1
297 1 16.848523437601212 18.909451587117292 1.8960807361300533 -1 -1 0
1203 1 12.360236469171491 21.52042569263675 2.7739017820103906 -1 -4 1
1425 1 18.728446684376657 17.177158536167788 7.724537978452737 1 1 1
266 1 21.146187023221966 17.93527566927002 -0.02179499785027561 -1 1 0
1660 1 17.6000963244522 16.63591847300906 3.0901411181097647 0 2 1
388 1 21.16088168884711 19.425681233782225 1.7403571650402205 -1 0 0
818 1 18.570463138918516 20.757470735858785 1.7866613148566306 -1 0 0
176 1 18.8240316282013 18.862000418876654 3.126422763503773 -1 -1 0
615 1 20.44256098147417 0.43463094917064404 1.5368435465339934 -1 0 0
488 1 11.102344835671136 19.72760862700711 11.656680598148322 0 0 0
563 1 2.4021736243495138 3.282432029366737 1.6534761608014255 0 1 0
809 1 2.572742858760493 -0.30482525121709914 5.438656862644871 0 1 0
67 1 -0.0783433393083792 0.4426688987570627 4.010881719956314 1 0 0
52 1 3.079821323805774 2.5910194246382847 4.204496620017164 -1 1 0
491 1 1.2857192143214524 1.9652441962963616 5.706693641223746 1 1 0
84 1 1.566012251022202 0.4858697666178141 7.582520084536807 0 0 0
1980 1 -0.2064579664505668 3.4326147970504266 7.115598653201051 0 0 0
516 1 3.9798805532815402 4.069976409402066 7.173695249790795 1 0 0
99 1 5.497867132289285 2.4959788208576272 4.733278710841141 -1 1 0
945 1 5.970230262095583 2.2644188745894502 8.340289774568529 0 1 0
1911 1 8.566942662585822 1.4675672256697991 4.706619702619295 1 2 1
311 1 6.78260868034847 1.07015148601969 6.138831367597091 0 0 0
284 1 3.512325546978525 1.5839453885511066 6.2894281475320035 1 1 0
450 1 7.768939223511726 3.642324070278402 4.028008902108042 0 -1 0
1927 1 8.172643320212433 2.3448577405035307 7.185837532777794 1 4 1
1672 1 9.719126399922686 0.06969571241227263 3.5567728347769654 1 4 1
1854 1 9.985285593063393 1.699542186641871 8.677304807659576 -1 1 1
1484 1 12.54750908316367 2.9709003495993613 5.8501874290071765 -3 4 1
1442 1 10.212245020148384 2.9267804218806153 6.3553656703583306 -1 3 0
1458 1 11.861553361649337 0.4625745277618485 5.215404338573968 -1 1 0
240 1 13.09215179991876 1.6801157299465492 3.76707197221561 0 0 0
1729 1 14.503376907220206 1.0000690351368802 5.791971499924875 -1 -1 1
768 1 14.990450784019716 2.9311682823387004 4.496498124644414 0 0 0
371 1 13.258625682129026 4.343157586475965 8.586189555151904 0 1 0
196 1 14.20414446993451 21.236772015649326 4.126382152458157 -1 -1 0
483 1 16.16455696407614 1.589630281604805 3.1461922134096034 0 1 0
419 1 11.867337405256734 1.3461028808190296 7.393172043800909 0 0 0
4 1 20.455945978277413 2.1572862558112815 2.984014062290484 -1 0 0
463 1 16.90830515084363 3.465816355073157 5.652974022235225 0 0 0
437 1 16.861650682762352 1.0874002883563318 5.48935075173649 0 0 0
429 1 21.195028194725257 0.602251938052931 6.371755407955874 0 1 0
358 1 19.317341197795955 3.1797208520857994 6.413608370136508 0 0 0
389 1 17.70890378382037 2.0911735493956103 8.05580839963643 0 1 0
165 1 1.5532164826053447 5.085342756351824 3.998632846938297 1 0 0
1210 1 1.7701779108466646 4.151372642629945 5.978675466678017 3 0 1
365 1 3.0867564815187714 6.714308407086302 5.687681247184187 0 0 0
496 1 0.04497895088265991 7.55364170691555 4.158998670313296 0 1 0
1537 1 0.4128209409243788 6.134440805887338 5.880588697112653 -1 2 1
641 1 1.8605428783890536 7.175140647608205 7.563834036689418 0 0 0
624 1 21.454681136365 7.791074034843296 7.483379017013251 1 0 0
5 1 6.433429020570641 5.371964235377245 4.582359975687956 0 -1 0
264 1 8.105351734524344 6.776897963400286 4.723050255742414 1 0 0
167 1 6.317751330811858 3.847474365101794 6.3592837829095235 1 0 0
376 1 4.0734111774156885 4.970719534641775 4.706118669578517 0 0 0
477 1 4.140345708615466 8.584924989842975 7.220233942184789 0 0 0
406 1 5.17742655570583 6.501794536241387 6.612108524977513 1 0 0
127 1 6.104018215920595 8.18258478645043 5.406250689750072 -1 1 0
710 1 8.138032570606013 9.114131842561495 6.840456447958116 0 1 0
215 1 12.72097236631402 4.255442421598845 3.6258953024824905 1 1 0
733 1 13.501798679836346 5.57084797704945 6.377684666872398 0 0 0
390 1 9.890261871455033 6.037408075210545 7.810119074949693 0 0 0
2001 1 8.787224011806266 4.574242257234402 5.766126395970785 0 1 1
1389 1 11.01215394964909 4.159075253212916 7.871600136532077 4 3 1
2010 1 11.519185598637868 8.785004401807285 4.103441749195903 -3 5 1
475 1 11.232928333176256 5.553296004383157 6.11568713608841 0 0 0
1936 1 9.796612604232731 7.706083347389113 5.775136297932464 -3 0 1
386 1 16.813762144247832 4.1513330785874505 3.337330106294673 0 0 0
305 1 16.39735614250324 6.491409473586496 3.3260205121573776 0 0 0
539 1 15.282688093756677 7.42684918592877 5.080450826318061 1 0 0
1021 1 14.883975995838645 5.266617213544371 4.3634676788284725 1 2 0
1233 1 16.17094849303869 5.636683112031821 6.551811804090546 0 0 1
73 1 19.737002922738334 6.403077971465615 4.301921557202227 -1 1 0
3 1 18.84518096275316 3.3024957387183633 4.218105725571575 -1 0 0
758 1 18.727687091915513 6.6055448033657385 1.8808825841631895 0 0 0
1330 1 21.28493499286074 4.030226201587197 4.943335462823418 1 2 1
66 1 17.86630271240369 5.666397685503114 5.224189841136469 0 0 0
1512 1 20.134901006261693 5.504539986663805 7.030018177888079 -1 -2 1
476 1 17.82841856116527 4.991508789578891 7.698168015903656 0 1 0
695 1 19.287298629111202 7.722920639691603 6.545024663499378 0 0 0
460 1 1.3187444004024182 9.922679324000777 3.818481377119382 0 0 0
262 1 1.260900215532871 8.78509507518324 6.064491414572817 1 0 0
1257 1 3.5829825115961484 9.286182633386655 5.00178396218733 -1 0 1
138 1 2.749463089212947 11.520972391925971 4.769741219954884 1 0 0
244 1 2.497615895356361 10.72078126224437 7.245945934598975 0 0 0
541 1 4.292680033917682 11.654398896571584 6.447139417730776 0 0 0
693 1 0.36496095549811314 10.85185288187572 6.659601110432452 1 0 0
313 1 7.346452703626799 12.399803330832977 3.782713273650865 -1 -1 0
584 1 6.061510038716126 10.53547262794211 4.667319377342957 0 0 0
998 1 6.672920801602276 12.362747152784628 6.111292349774297 0 1 0
1381 1 6.077494269868347 10.270081948250402 6.910099950970426 0 2 1
1352 1 5.4643800820228385 11.455470112585626 2.4738394121786427 -1 1 1
398 1 7.131333500176922 11.385735032960813 8.757896280610229 1 1 0
227 1 9.91443287693005 10.914342652253984 3.946532568253912 0 0 0
41 1 12.681076524339723 8.007981709215954 5.73298219748999 0 0 0
2012 1 12.762469528274947 10.830333264580087 3.155633617431508 -1 0 1
344 1 9.276862669313166 10.55699440021311 8.198232561146892 0 -1 0
598 1 8.484696503406088 11.13315629085049 6.0006382804333915 0 -1 0
338 1 12.615005424733893 10.951159246245 5.774231138815605 -1 0 0
549 1 10.637086091324518 9.736660501377667 6.4054224518988745 0 0 0
17 1 9.92528510068723 9.927187160275968 10.255588233389306 0 -1 0
975 1 11.860627103575588 10.199773628742895 8.680066938812914 0 1 0
800 1 14.058470277637761 9.503546252057095 4.691855517870016 0 0 0
1220 1 16.426191336657528 9.60754457868293 4.639006800509463 3 1 1
250 1 14.43905982432419 12.100810754500225 4.971757254203038 0 0 0
317 1 15.281057643554776 10.923102415522635 2.935158371272456 -1 0 0
363 1 16.727151717047235 12.46272710294905 4.539352735374045 -1 0 0
714 1 16.306500308735856 8.767146571312852 6.907984721437943 0 1 0
209 1 13.708765825692538 9.037442604292064 7.474619376704142 0 -1 0
208 1 17.75154882915405 8.586622189622078 2.699168441772628 0 0 0
542 1 17.858240460010904 7.81821865455786 4.754887728291396 -1 0 0
1772 1 20.877330331892516 9.393132696894106 5.459092757353281 1 0 1
402 1 18.17023988057641 10.120251425183275 5.695579705567484 1 0 0
1608 1 20.397689839245054 10.153772708263146 7.700955440874225 3 0 1
224 1 20.183632634556517 12.677032817312961 3.378484704661547 0 0 0
959 1 19.694365186754442 11.615370579501018 5.319017458845393 0 -1 0
1882 1 18.0920601418191 9.220174736264358 8.279459892817124 -1 -1 1
1955 1 3.398846652971477 13.42794632229969 2.7699923788931984 1 -1 1
532 1 0.15170839299891925 12.077405990659907 4.6834346492051235 1 0 0
501 1 2.4378179923003414 16.008588364375647 3.7509270602442406 0 0 0
669 1 2.5578255696829753 13.962414237557017 4.712192663457626 1 0 0
321 1 0.514981586666382 14.170253722384025 6.027952281994526 1 -1 0
280 1 5.365838338433002 16.12400681848415 6.892099662433843 0 0 0
1105 1 0.2157164662147949 16.339877654926315 4.199773207735621 -3 0 1
495 1 7.3495658953043606 14.72452631783649 3.0635249837589953 0 0 0
492 1 5.145910002870939 12.85161325488587 4.382208493553373 1 0 0
825 1 6.828780922833916 14.499081513455156 5.437584629352919 0 1 0
1827 1 8.446689060901747 13.160039484214193 7.713637596166539 1 3 1
1516 1 7.744911747392074 15.88386578240868 7.449511928422188 -1 1 1
378 1 4.7549339127788 14.033001374511288 6.683547477280353 0 0 0
141 1 8.655293923320464 15.890703762902245 5.128636944260845 -1 0 0
678 1 9.476234380468606 13.369436028228037 5.1619160963781905 0 1 0
377 1 10.736138969150417 11.9456236697688 6.7376489509912645 0 -1 0
281 1 12.047147437391972 13.134584205651183 4.508644570408174 0 0 0
1821 1 11.434662596834153 15.380775431644421 4.925212896117261 1 0 1
1292 1 10.14773460247389 16.66175513991382 6.859246733192884 -1 -1 1
241 1 12.995855199720559 13.43994581370815 6.679739915648705 0 0 0
1982 1 16.162398924677223 17.203869786900714 5.109873315852563 -2 4 1
355 1 15.468296103643931 14.622925511713266 5.386245382085508 1 0 0
417 1 13.639417163889147 14.968265714622268 4.1900754982653465 -1 0 0
470 1 17.955743838209838 14.18264084580291 3.570122780836284 -1 0 0
1343 1 11.994435001330206 15.942335092369568 7.222396065196048 2 -5 1
348 1 18.59594438268033 11.050201178434376 3.131729299839018 0 0 0
273 1 18.271274040961234 15.861914947672421 5.59427402986832 -1 0 0
170 1 0.5643712672564462 13.804232884735773 8.25446663070659 0 0 0
384 1 20.548570136356712 14.466980996443478 4.745434667736234 0 0 0
166 1 20.71298750280024 16.59434903572731 6.31531366628225 0 -1 0
525 1 18.725772526923485 18.315771862999593 5.738113109256914 0 0 0
267 1 16.40836537425095 15.907244642125058 7.2976945361054995 -1 0 0
554 1 0.4243519079821847 20.18734944637217 6.042062329104851 0 1 0
656 1 2.7760842768533904 19.259249149798805 5.988670261031051 0 0 0
112 1 1.61675376663214 17.086233953705054 6.120936840209154 1 0 0
547 1 3.792711349181725 17.29491575141953 5.035840565915071 0 0 0
788 1 1.6101238846594956 20.29522624915722 3.5912784754895 0 -1 0
275 1 3.392858616351131 17.720993951488577 7.827582629821961 0 -1 0
269 1 4.9688162798701505 21.20884891975698 6.097897527955063 0 0 0
1244 1 6.757525159304183 16.919636496849815 4.5687841585187075 -4 3 1
557 1 5.2834288451536535 18.56068019920353 6.448259809191067 0 0 0
285 1 5.933967368419102 18.64623909433794 3.362882219082988 0 0 0
1489 1 6.217435595819385 20.734652344376723 3.97563474137354 -1 1 1
1928 1 8.089082891934169 18.045152195434937 6.061723187138867 -2 0 0
448 1 6.428986381161239 20.118491619873037 7.44228719654247 -1 0 0
160 1 7.676052734978877 21.021471029181345 5.762096839602139 0 -1 0
361 1 8.215789339920738 19.2182416994421 4.30990410064154 0 -1 0
82 1 13.00308044075109 20.446005302210416 5.971306272533984 0 -1 0
632 1 10.452675406641376 20.027956795504767 5.03849056392612 -1 -1 0
288 1 9.111606921909878 17.26023170707463 8.670549006327489 0 0 0
1159 1 9.465118417845426 0.3873756757556729 6.346278492288846 -3 3 1
332 1 12.096406895303167 17.894512662906415 5.531666208830305 0 0 0
651 1 11.081275082389045 20.98185077336182 7.450463795800168 0 0 0
1794 1 17.078110472096025 21.31512675631995 3.867947242950253 0 1 1
1189 1 16.894831283020224 19.10822591975482 4.120982773256683 -3 2 1
1505 1 13.426784730926741 0.029524738353844504 7.935579711659782 0 5 1
233 1 14.146601703919483 18.699980371353497 4.716393214613438 -1 -1 0
1723 1 14.172759866913136 19.585212094369254 2.4266865460825082 0 2 0
226 1 15.212452903880305 20.855139964312627 6.450452522812101 0 0 0
428 1 16.234481637474126 18.77964565536042 6.815793987873579 0 0 0
996 1 13.630679413954283 18.629250872524253 7.300983200149462 0 0 0
813 1 16.74421026496686 20.623893999465146 8.115101937768436 0 0 0
762 1 19.126517116172653 0.9693675335170542 4.931336093678475 0 0 0
410 1 20.103934507198066 19.842538402809158 5.854993703530288 -1 0 0
216 1 21.55598045871794 18.884697961059175 3.9116792926704855 0 -1 0
653 1 20.229100469831327 20.871452458918217 3.589129118268519 -1 -1 0
751 1 17.984654080701823 20.400938030036002 5.711212281269784 -1 -1 0
314 1 20.583422251143794 15.932656284924587 11.159158792043984 -1 -1 0
425 1 2.113816825956734 2.794483307426282 7.9436282137301255 1 1 0
1337 1 3.5255289627963045 20.62839438008661 7.775860438845081 2 2 0
75 1 0.9270352589377648 0.31568548518312267 10.129725966149675 0 0 0
1733 1 3.4797560222267307 0.9098391804272636 8.796665357358565 0 2 0
1014 1 13.287462132163034 20.35129530395533 0.3193406550044955 1 4 1
634 1 2.309949942291143 2.180597529450717 10.641276472058946 0 0 0
229 1 3.814126830911749 3.1913835257911845 9.550436937555059 0 0 0
350 1 5.957026234658912 3.310272620075307 11.052453224384683 1 0 0
478 1 5.238487279693066 1.2952925081449636 10.366986204762537 1 1 0
745 1 6.678812935804168 -0.29472983067736325 11.421028724490393 0 0 0
717 1 4.891254857849464 20.170211923218023 11.271049449528995 0 0 0
749 1 5.364447893857368 -0.0993949605747462 8.506023681013033 0 0 0
367 1 7.770136760863702 2.142185436079072 10.482799707511843 0 0 0
596 1 11.69042481634018 21.47694873490153 9.656265304034852 0 -1 0
455 1 7.934002751622719 0.1358988226632185 8.231367023678319 1 0 0
588 1 11.8405759309917 2.19358571964359 9.63283027526977 0 0 0
326 1 9.148808765488056 0.0744616093322027 9.881291152380323 0 0 0
19 1 9.987689287737442 3.9767146299717595 9.8317781748026 1 0 0
1909 1 9.8374695821825 2.290492686062135 11.129810451398594 1 3 0
944 1 9.01995950449362 20.644575959774947 11.794707713608835 1 0 0
953 1 16.303207689137214 4.167728863368926 11.819407463315557 0 1 0
1364 1 13.315448180465753 0.4168560057840235 10.863200362504193 -2 4 0
973 1 14.223074296017463 2.1473696166902387 9.268365867332646 -1 1 0
756 1 14.76146548636528 3.412541810824491 7.066085979637591 0 0 0
565 1 16.112161861256396 2.363208944694874 10.161317782597262 -1 1 0
327 1 14.181215950975453 3.9564228401951738 10.685639026599985 0 0 0
1745 1 5.33978648447647 13.481748333155945 -0.29607713221658827 1 -1 1
353 1 21.222590370292398 1.3436849635013142 8.3290284748423 0 0 0
239 1 20.570704969200417 2.117055756345089 10.590563976342976 0 0 0
1372 1 18.02327797479313 1.4934420730686775 11.349505306504437 0 0 0
97 1 20.410021541237153 -0.16482507822906756 10.131654593741947 -1 0 0
681 1 0.1911309040289989 5.650336604460686 8.423345770471949 1 0 0
1696 1 0.43284071460616014 3.293355674681876 9.78413912962361 1 0 1
467 1 21.115653096470773 5.397460093267996 10.44870225894896 0 0 0
45 1 2.1778252635060507 4.878175375655345 8.521416961981224 1 0 0
507 1 4.226277379589746 6.226588935997465 8.854871479069162 0 1 0
1601 1 1.5810362431116434 5.391421246665598 11.046201278735174 -1 2 1
802 1 0.2730567304670367 7.472658719261708 10.288243098332963 0 0 0
178 1 2.071014518512948 7.424353510570813 11.910594147901628 0 0 0
1002 1 18.520891247146675 5.552312215980595 10.829004005628063 0 1 0
381 1 6.1914936745974085 4.906548706742676 8.422183642944907 1 0 0
1491 1 5.740146479604381 5.855004689031054 10.491139315381723 -1 2 1
237 1 7.743964431730268 4.550088858936473 10.648970348118553 1 0 0
1501 1 7.726462769216528 6.257761266330112 6.799909179452256 -3 0 1
901 1 16.433045475106276 15.892261710746535 10.39486634882896 0 -1 0
259 1 8.322424858578424 6.439814104755839 9.615006044113347 1 0 0
509 1 8.237401721641831 4.224684793917583 8.391755844365052 0 0 0
725 1 9.745890438150711 5.946344675790845 11.577564964511513 0 0 0
499 1 12.249095288524767 6.838131183898522 7.906070543257561 0 1 0
436 1 11.448502000350466 5.690148379026839 9.617532556865413 0 0 0
597 1 16.134575284423143 11.415927108271084 11.405723928265752 0 0 0
1165 1 13.103714298785096 8.609923341094564 9.56102619112897 -1 3 0
63 1 13.752511060731491 6.47178493496252 10.018631048161177 0 0 0
123 1 16.290766012675235 4.880471075844844 9.07013258649156 -1 0 0
1308 1 14.658693914639827 7.15545985897158 8.026062874978946 -3 1 1
359 1 11.871221432842113 4.304956715408431 11.55579769851695 0 0 0
1688 1 16.76888742200436 19.75780891289148 10.248599143783952 -6 -1 0
422 1 14.527902102961951 8.718171077225975 11.500965855767896 0 0 0
667 1 16.015831181508844 7.297562315266502 10.481369168707312 0 0 0
23 1 18.08853554872813 17.731812567272133 0.027624565637607956 0 -1 0
822 1 19.929237484110292 4.338559203799525 9.110873908515046 0 0 0
1786 1 7.383280009971543 7.761271790363864 11.649071593383054 1 2 1
194 1 13.430800895565143 10.983353507905518 10.022815757771017 0 0 0
440 1 18.06935881438044 3.467897102262938 10.098897516401768 0 -1 0
1476 1 20.492578598544807 8.918868228903289 10.040837178537789 -1 0 0
220 1 19.480429768799123 7.073392083850686 8.87257973606995 -1 0 0
1841 1 17.229985308829306 7.230041683767593 8.766703015353828 2 1 1
282 1 13.441258489835418 20.339588736567727 11.752645577138699 0 0 0
520 1 2.5447438869103745 8.166446171307495 9.344763996481047 0 0 0
451 1 0.7105180325546809 9.605505172029622 9.200162644118256 0 0 0
1001 1 12.66784797746745 19.009801917651554 9.58469259641292 0 0 0
545 1 2.7241280873650533 10.919390459694238 9.424723242568765 0 0 0
203 1 4.7892526535913875 9.88625782666611 9.261931833041826 0 0 0
352 1 7.915899751376692 9.017435139326006 9.496152497327175 0 0 0
11 1 4.935140868604177 7.975604736856949 10.19315607753352 0 -1 0
88 1 6.624017630536948 7.503345855320788 8.277467470877387 -1 0 0
562 1 6.873374335475061 10.560461672324104 10.907692447306765 0 0 0
122 1 4.891889294592273 12.194265501165672 8.953330667473022 -1 1 0
1957 1 10.406392413891865 8.431976008089201 8.128704626238964 -2 0 1
1309 1 8.634373099230052 12.197794346246994 10.064874529156073 2 -3 1
627 1 10.601441561816968 7.703381513773799 10.268406938478 -1 0 0
1868 1 11.251487297214956 12.12557458978807 11.075881162028107 2 -1 1
442 1 11.700276646907597 9.661834403140196 11.637749548630516 0 -1 0
564 1 21.264005111214562 20.92217646151523 7.8236695619781464 0 0 0
577 1 16.188315246826967 11.183084268732582 6.3138801107536935 -1 -1 0
258 1 17.07950695723157 9.206269230664885 10.76901865146923 0 0 0
676 1 15.181077014064774 9.828729412996665 9.249877021000673 0 1 0
797 1 14.108102704944047 11.202368480842278 7.492458796872382 -1 0 0
1393 1 16.900581041652817 11.61068479031542 9.46048012789884 -1 1 1
784 1 12.599427975156898 13.354551261389055 9.309253831845963 0 0 0
522 1 -0.06883672240448602 13.007514660353156 11.514981198937459 0 -1 0
498 1 9.143023311627886 18.400845281388033 11.051941746340098 0 0 0
1836 1 18.7252654463205 7.769197539819482 11.081421671832695 0 1 1
647 1 0.21048386171690137 11.793731777764048 9.275904306363708 1 -1 0
163 1 20.921949533256374 11.160821864279157 11.288237968131591 -1 -1 0
719 1 18.520169122494416 11.39508973260882 7.409652858801037 1 0 0
471 1 19.0352183901904 10.933833887065918 9.826834890372288 -1 0 0
633 1 20.85445966222654 12.797220408011093 7.0661395451059095 -1 -1 0
47 1 2.7566996292865342 15.88496471816945 10.725477616478273 1 0 0
548 1 2.044717914187079 13.12940567671772 9.969081713412178 0 0 0
803 1 0.6682177589300887 15.155655107784012 10.274509082180703 0 -1 0
1339 1 4.148113670636147 13.308646837485718 11.073653636563545 -2 1 0
502 1 2.1566459360022994 15.485560234493306 7.759656860748487 1 0 0
400 1 3.7794927598607 14.327296115558173 8.97811555796159 0 0 0