LAMMPS data file via write_data, version 29 Oct 2020, timestep = 300000

2048 atoms
1 atom types

-0.3519642834207808 28.70396428342161 xlo xhi
-0.3519642834207808 28.70396428342161 ylo yhi
-0.3519642834207808 28.70396428342161 zlo zhi

Masses

1 58.933

Atoms # atomic

700 1 12.816636445131032 12.91930314805013 0.535991749339328 -1 1 0
1280 1 4.125468754300128 0.814066983536095 1.48713557851222 1 0 0
1410 1 1.163881193832073 1.2896086067887018 2.816546662790209 0 1 0
744 1 3.2622611357277265 0.0641244424220278 3.4244999648299896 0 1 1
1867 1 1.0392269849793445 1.2485074197129478 0.13444988878071584 2 -2 -3
2003 1 2.9030928350874015 2.449587386836042 3.5585825072516926 1 0 0
915 1 2.1435917583925095 3.1342430417288223 1.2901301972384303 2 -1 1
1775 1 -0.32547967875924755 16.408425013857155 14.084711400421709 -1 1 2
876 1 7.4716292562045545 2.169534065125894 1.2087266476694318 -2 0 2
503 1 8.80942319158921 3.6092823528338145 3.485456247506919 -1 1 -1
22 1 8.55074675966202 1.1298869871171153 3.217824819261737 -1 1 -3
1892 1 6.451883998313471 0.31762727289356096 2.1878431774801927 -2 -1 1
936 1 6.388735670610208 3.7995265597154937 0.26085892449552317 -2 2 0
1633 1 13.760481921221606 20.157599672844945 11.715717725827181 0 -1 1
1966 1 8.488829882546952 -0.17409023260061507 0.9868622367009969 0 -1 1
463 1 10.75348014896202 1.4424634290826635 3.5503802896301195 -1 -3 2
1608 1 10.079218663989879 2.8047095446022734 1.5894330938090655 1 1 0
1457 1 13.100487036749813 1.5521602709494975 -0.018752143798900778 -1 0 0
611 1 13.192905261819277 2.514044452866499 2.2323396579866817 1 0 0
1820 1 10.092473156075037 1.0074376814444141 0.5093551894065736 1 -1 1
1154 1 2.636841856849485 5.806353263515167 13.751465332386214 -1 1 0
1789 1 12.120150310732168 0.20230851095637103 2.0453384254170297 2 2 0
1093 1 13.626005951062368 14.468606955270186 9.452367344728023 -1 1 2
907 1 7.026648107386135 22.391137165881993 -0.22166563522907426 -2 0 1
1902 1 1.6077393496860746 4.515247197519802 3.2996101969913623 0 1 1
1235 1 0.6392448338659438 5.359184010770986 1.2407680864086235 0 -2 0
87 1 4.732044324133351 2.8649556679741197 1.8076248671588377 0 -1 0
1281 1 2.7358323086061223 6.57669614132332 3.0485475837503855 0 0 0
2043 1 -0.286902190472654 21.551497821795657 2.148072776718657 0 -1 2
2008 1 3.546930891177573 4.929553104405937 1.2256546221760645 2 1 3
678 1 12.11692920676789 26.629437752617335 14.112286926961726 -1 -3 2
1225 1 2.2383381689031134 6.343216828012605 -0.07669406333685258 0 -1 -2
1758 1 0.7071600421121145 6.542349791236129 3.99816232208463 0 -1 0
1988 1 -0.2860035364979867 28.533802313370227 12.818463038787396 -1 1 0
950 1 4.057413894998589 4.364610588079911 3.59394237606938 1 1 2
1695 1 6.453767239068828 2.9492299478822934 3.369288517823923 1 0 0
1489 1 5.04145149872792 6.656009877937444 3.8110439933244757 1 0 1
322 1 5.97609411888444 4.935289073248954 2.03661676625501 0 0 -2
2009 1 8.464675671687623 4.489921446893298 1.4335339717626805 2 1 1
630 1 9.157431492527135 7.455574830310627 1.4519375720044836 2 -1 2
1596 1 7.790959026321055 6.2373034082244825 3.26367933071496 0 0 2
955 1 6.79441813412447 8.45782265478151 4.425354742817612 2 -1 0
1283 1 7.485984354966609 11.272331888621936 -0.2517751760224061 0 0 0
1029 1 4.267626757000613 7.635328551640847 0.7977798832127401 -1 1 1
798 1 10.206352245868018 5.5893022500434055 2.9558488116395485 0 1 2
1632 1 12.051572830505052 4.349536563706516 1.1076180827221607 -1 1 0
601 1 11.553440674393435 7.175455313348084 0.5217065238419624 0 -1 0
1048 1 11.477436804666796 7.5537910621347555 2.9434895376055783 -1 2 0
1453 1 13.523668278039523 6.485337063291885 2.422721131593521 -1 -2 0
191 1 13.963678511330738 4.062771404690513 3.6445164071122806 2 1 1
303 1 13.429049055538892 7.713582043086673 4.470184786795383 -1 1 -1
1920 1 -0.04939371177885771 8.868102588585684 8.470737637560482 -1 0 -1
1117 1 1.8443101907779824 8.14424143467336 1.3910240198934964 2 0 -1
1628 1 0.060750179961492234 24.7086258050972 11.59655092754072 2 0 -1
448 1 1.69147687415692 11.599441394804503 3.3951553130150813 0 -1 -1
284 1 1.0622824315581545 11.869258116835919 0.7058095876790753 1 0 -2
162 1 3.9941665069057226 8.94862180788379 3.298526401393496 0 0 -1
1773 1 2.965412754925045 10.355283151843238 1.651818148900587 1 -1 -1
1680 1 1.4745670834572437 9.197016103487181 3.4090323006133305 2 0 -1
2040 1 1.0655676879384874 24.084039191134686 13.978773238258315 1 2 3
698 1 6.336838558040731 7.654295850674497 2.223561847976724 2 1 -3
2028 1 7.216591973658594 12.13821593386482 4.230291647007535 2 0 1
1599 1 6.214544273428224 10.364673697501281 3.023434473685858 0 3 2
208 1 7.374496616197249 8.520681361432917 0.0596349900574728 0 0 1
786 1 8.740869005293932 8.910882328723396 2.936541874021398 -1 -2 3
681 1 8.296881838786073 11.010025486650301 1.9849552005106088 0 0 -1
1794 1 9.104333140400536 13.018133117497078 2.83300846800997 0 1 0
1970 1 5.471154056900829 9.642822750641969 0.9560980134043038 3 2 1
351 1 13.062778802604845 8.764359439321021 1.6472859079036204 3 -1 3
1462 1 10.881260022192908 9.125163429487209 1.3608227307617335 0 0 1
16 1 10.395255856317757 11.113057519952935 3.9205586028175308 0 -1 0
925 1 12.46367923295494 12.262725162871755 3.481991814329246 2 0 0
695 1 12.699007969987383 9.924293747073413 3.7437063503308474 -1 0 3
1479 1 10.967726511962958 11.485136647810426 1.7589527162363634 0 0 -2
1179 1 13.924512616305377 16.78081720402772 2.908063534841777 -1 -1 1
674 1 13.743653739617125 0.6172106722637946 12.486751675845477 0 2 -1
386 1 2.8347510459985923 12.740239772743667 1.6277058678121972 2 -2 2
49 1 0.8465455812407918 13.677139765334696 2.3841333909448625 1 -3 -1
1080 1 0.6941697275267042 15.876199834199454 0.6734339199334254 -1 0 1
1864 1 3.09284008307699 15.280386111954051 1.7526089350298273 0 0 3
922 1 3.1929216182344824 14.186958771241663 3.752678737478539 0 -1 0
1859 1 6.984952740062489 2.9026354809871004 13.60824473198537 -1 -1 -3
823 1 4.017213278159875 11.497809768663117 3.201923546612293 1 -1 -1
106 1 7.435043850384573 14.692820423392282 3.4163682261457478 1 0 -2
336 1 5.495825990477194 12.061853063645367 0.9996850883788981 0 -2 0
894 1 7.4670185073731306 13.129702326981366 1.6211383657194414 1 -1 -1
643 1 8.95592820930715 14.918534052147985 1.024782077769038 2 -1 3
549 1 5.229023480495641 13.4971788521442 2.5820904369863777 0 0 -2
1193 1 10.195822686306311 15.269279689741545 3.5247818998876532 2 0 1
1274 1 8.455456481551511 16.817679575931102 2.4921114853593305 4 0 1
622 1 0.8834101686667752 13.902504198989448 10.284057670793123 0 -1 1
1046 1 5.312639684813814 14.431237772707185 4.6758965267576516 0 1 0
1221 1 3.2288541761802576 20.85576683889887 13.766467960581085 1 2 0
1284 1 10.938238696937299 6.368229511135875 13.830225384892469 1 0 2
1765 1 11.032081559544073 13.95277644394717 1.8392322668664476 0 3 -1
1263 1 13.58774185086787 14.419710414932807 2.1462513705804906 0 0 1
814 1 11.71052916091611 16.358773363071105 2.0339772270886236 2 0 0
1926 1 12.467144586390532 14.881295776192248 4.016961876636013 0 0 1
1536 1 13.159456916493978 16.07473841425389 0.3875251245263851 0 2 1
932 1 13.852877445599141 20.692923414521353 7.965967548965599 -3 0 2
747 1 10.720904592371596 13.785200936524205 5.215738688890247 -1 -1 1
1681 1 8.631707278159201 26.673190624246075 0.25408322664877236 1 -1 3
1515 1 -0.16936524662845318 22.52491501534916 10.366639314337405 1 -1 -1
755 1 2.576266256526713 17.89437718385658 2.4335483103791846 -2 0 1
1053 1 4.180692112414799 16.924621467821503 0.5107990394079704 -1 1 -1
1114 1 4.037979630206244 19.404229733003387 0.979263854618744 2 1 -1
1028 1 1.3364467974252607 17.835682847798136 4.386303085115501 0 1 1
148 1 1.5011293375478219 19.494161925169063 1.0609281266417352 0 2 -2
321 1 4.612067422439315 18.44173697489552 3.0115111995492225 -1 1 0
1316 1 2.2835237367874606 20.098794828373666 3.4444646724362147 -1 -1 1
1749 1 1.3907462086640945 15.866207693831953 3.32861789017781 1 0 2
1495 1 6.513676900247983 15.772024117903268 1.1802036962649245 0 -2 1
399 1 9.875799121969743 18.14561280475743 3.890496036267198 0 1 0
1575 1 8.213862158252926 20.23570600333809 3.5022371733884254 1 1 0
880 1 6.287568855744546 20.054810722304502 2.094481291256871 1 -2 0
1646 1 5.116991731455766 16.03746782362297 2.9334110202040367 0 1 -1
1183 1 6.115605540143811 17.971918650822662 0.7989735616468263 0 0 -3
882 1 8.530017301129227 20.131531909114106 0.30747031411585013 -2 -2 1
556 1 6.969463262128837 18.218850141755027 2.9191101647433184 1 1 0
1024 1 5.676778962646215 19.94023296585649 4.594383926093039 -1 0 2
628 1 9.811217622907451 18.26299743555619 1.317801653148313 1 0 0
638 1 -0.1706846047023581 28.53089513389103 1.198096213329966 1 -1 1
89 1 13.946253865699934 6.001848926951816 10.625976801475725 -2 -1 -3
1611 1 12.798432518549221 18.44333574878234 0.8272808121448416 -2 0 2
1256 1 11.85787700296311 18.499918753054217 2.8880248566009072 -2 0 0
1545 1 11.738886193229341 16.817648240760317 5.1479960440758905 2 -2 2
738 1 10.063870510320895 21.531190922646843 4.187417173615691 0 -1 -1
75 1 0.6496724181212932 21.457618204791373 4.288354836431455 1 0 -1
28 1 2.2262852330610414 22.656728158676568 3.1300320859034754 1 -1 0
421 1 3.008658458983029 21.484300988145623 1.1453793078930437 1 -1 -1
1478 1 0.9016260656811776 24.1157289222799 1.3590652768857034 1 -2 2
1635 1 4.310242795787043 21.160667220868824 3.276225535966809 -1 0 1
1141 1 2.1338623653084796 24.92084445033459 3.453318848566634 0 0 -2
686 1 4.520696496335717 26.047832231175178 0.11950998992175904 1 -1 1
420 1 13.326032509864666 24.215878703255058 14.12202689194049 0 -2 0
61 1 2.8488916723047666 20.750265313195104 5.347100372838548 -1 1 -1
319 1 5.5144210995058875 24.733106967577648 14.043927559605338 3 -2 -2
289 1 -0.3167868900729716 18.997873422509638 2.5986721724290036 1 -1 0
203 1 7.983756229982065 22.115911212016133 1.75291862776767 1 -2 -2
1104 1 5.284339526232473 22.459455610506836 1.2804649015456622 0 -1 0
1595 1 6.648679566331644 22.2337773328172 3.324231878643916 0 -2 0
1551 1 6.955502060954493 24.456062563165652 1.8975014449434164 0 0 1
817 1 3.2554959706500397 24.16845914575477 1.412199230274881 1 0 1
1802 1 8.340845647104258 24.050914888243287 3.74516915111875 -1 0 1
118 1 8.570015890927195 24.003459653890864 0.1997423315760627 1 -2 0
385 1 13.136519558512004 27.08718949144264 12.12599388273135 0 2 0
1771 1 12.66164915930201 24.915114216271867 2.922539297158183 -2 1 1
627 1 12.453455147580588 20.900107180714294 1.0427942032762696 1 -2 -1
1136 1 10.1676926984484 20.68016797680481 1.8685703820138762 2 -1 1
1084 1 0.04867541675927156 27.346522428590344 10.590757598498731 0 1 -2
189 1 9.819640883942318 23.448112782008366 2.224332767318888 0 -2 -1
1932 1 11.890879158134736 23.290234117700393 0.678053277758621 1 3 0
1534 1 12.250091978403383 22.802989697229105 2.9974392981225373 0 1 1
691 1 12.948962088930571 25.11548825265089 8.907828706327429 0 0 1
1740 1 -0.002234279348142465 7.634085933127099 6.379165273832945 1 0 1
565 1 2.1882252805820404 28.531550081307074 0.8846090743051669 1 -2 1
585 1 -0.28709565027919676 17.682234089015278 -0.1520915289338449 2 1 1
1779 1 2.5265116194918567 26.368732385638026 1.7152289831643044 1 0 1
667 1 5.395441840546972 28.002783401116016 3.8158227927695805 -2 -2 1
1824 1 0.5867151026368749 28.31560221360867 3.2907692619067883 0 -3 -2
2007 1 -0.06099906289939133 25.991076149651775 2.430389620743198 1 2 0
729 1 -0.014808631735237499 26.47179262186622 -0.004126473883131976 1 0 1
41 1 4.509108495409713 14.364662317645022 0.5517406135461346 -1 1 -2
97 1 4.647736262383751 25.99739437694368 2.764104626458387 -2 -2 1
85 1 6.848559715172902 27.01918335864315 1.8631894850087218 0 -2 0
210 1 6.517882425061236 25.842475836235163 -0.2037764827075522 -3 2 0
377 1 9.875741027042238 28.260032228570594 2.5628527329576034 -2 -1 0
1184 1 4.428667680384566 27.8671874252056 1.3745440916233722 0 1 0
1054 1 9.312849293227744 25.782891620663452 2.5672266185038697 1 -1 0
1529 1 0.046410866627802194 3.164800242108694 2.3967558357545564 1 1 1
295 1 6.775505486071762 25.715743479671065 4.2867903764172395 0 0 2
1998 1 7.8695562746943875 27.628925634395888 3.8056718819418087 0 0 -1
1625 1 10.554776701286503 25.267687021754153 0.37327843876444333 1 1 0
1437 1 11.636486650904756 28.395740448135083 4.334374900754312 0 0 2
1856 1 13.234045835938426 27.713613111867495 0.3204190923868646 0 2 1
604 1 10.91848044595732 27.649324862676703 0.6687960283360761 2 -1 4
435 1 12.974748704271905 25.323827509312697 0.44675287101483174 -1 -1 1
1011 1 12.230802698969256 27.002182367531667 2.261299927436005 2 -2 1
1513 1 0.2975782262283133 26.777140622821747 4.93672013399206 -2 -2 0
1688 1 10.824674758846523 25.246168420175326 10.6896203238228 0 1 2
1440 1 1.1264299461934342 3.9232349827185535 7.271107528056251 2 0 1
721 1 2.6556183279037455 1.1963061395380048 5.55708388085784 0 -1 -2
121 1 4.9487290883933674 1.6287542501670416 13.57386146024869 1 2 -2
1477 1 0.7620528533141682 2.871486724634155 5.0077200834162765 -1 1 -1
785 1 3.3314276992076057 4.653424273729438 8.097629637243013 0 0 -1
130 1 3.0202457699045864 3.362457921507277 5.810246452378333 -2 1 -1
1079 1 2.1469850094896916 1.8699291385000296 8.20083028630911 -1 2 0
535 1 4.8657556538135855 1.316086267731501 4.168654614349113 2 -1 -1
1776 1 6.956464215408575 0.40319096362296925 4.994612387864858 -2 1 -1
1275 1 5.603661686432039 2.9986937519434704 5.393284297908978 -1 1 -1
2024 1 8.177461083012934 0.1059397975975937 7.266799122162583 1 0 2
146 1 4.0978038067891935 2.150861990830127 7.325758202827926 2 -2 -1
413 1 6.835796733888878 2.3756840836822506 7.105904365552885 -1 0 1
1245 1 8.376985005521398 2.438402581504511 5.410486433949071 0 1 0
401 1 8.749363199376198 2.6605432217184353 7.949899601390445 -1 0 1
1592 1 12.851903932995384 1.2752038576548856 4.087911879782774 0 1 2
10 1 13.365203413298495 2.8070078325973813 5.681324404893554 3 -1 0
845 1 11.544786650957073 3.700507026876889 3.6232223963335226 2 1 -1
982 1 11.673665078635173 0.826638268303876 6.284337996697867 0 0 4
1538 1 12.140938086043596 0.044286381977478806 8.610023743791768 1 0 2
655 1 14.102956139871768 0.7279044342078795 6.2239510883715825 1 0 0
23 1 12.98622662490486 2.015813874039431 7.883789923779522 0 1 0
1116 1 10.309052414574694 27.560533613739207 6.62665119530152 0 -1 0
598 1 10.14403107694704 0.7871719689335452 7.884522758955471 2 0 2
1961 1 11.270252148532997 3.113316627242066 8.830475126178936 -1 0 0
521 1 14.041982007686464 -0.26219383411013303 10.349781453746928 0 2 2
229 1 1.3117407568760933 6.048087500101508 7.928764407790991 1 0 0
1168 1 2.4762456783031883 7.803143159433381 5.21497968928849 0 0 1
807 1 4.691775633032405 5.06141454931519 5.861945006152965 2 1 1
840 1 2.3093210357139826 5.659850928871865 5.634086427952484 1 0 -3
137 1 4.586708308499498 8.572186011983481 8.244106505212555 -1 0 -1
1065 1 3.5587762991551712 6.746343024144315 7.267021709607839 3 0 -1
1825 1 5.643476093600423 3.8534246516079733 8.359216163228153 -2 0 -4
227 1 7.015281048277199 4.699303802798813 4.735473001224611 0 0 2
1706 1 7.486405808929271 4.679169771877617 7.004069574115663 0 -1 1
439 1 6.5469282559323 6.728185851668004 6.076947801240111 -1 1 -2
460 1 5.765585045502897 6.352888440117233 8.222153087405736 3 1 1
365 1 8.84874825924629 7.266058077308909 5.24662538837962 0 0 0
84 1 8.571261909733703 7.155548300666485 7.641899100060994 0 -1 0
1030 1 9.443451670120782 4.947656957418772 5.222034723761366 1 1 -2
904 1 12.192041751572448 4.856564304964136 7.011815859558753 -1 -1 2
1186 1 10.836413838340208 3.100861666483398 6.156879493945579 1 2 -1
1254 1 9.74176076787799 4.880873317724954 7.986061488666623 0 3 0
891 1 10.747357245398922 6.899756388688353 6.50830007204339 1 0 1
1043 1 11.683326169174885 6.0747496427848855 4.640711590234312 0 0 -1
1113 1 13.135627740259988 7.137754112720492 7.029632402557369 1 -1 -1
270 1 2.2454626249122893 8.37998394901989 9.611343649576552 -1 0 0
454 1 2.356332946665477 7.224656955431991 11.935110757603102 -1 -1 1
1678 1 1.8635538723727092 8.742344397487717 7.160841014432694 -1 0 0
1491 1 1.2228417312961979 11.365525637405987 5.90519510310128 2 1 0
1240 1 1.3407625193044688 12.786094567454638 8.179557723023438 2 -1 0
1063 1 3.0373973738408235 10.026785128868644 4.923686642147562 0 -1 1
1099 1 2.7733340752348026 10.861140578725205 7.94778861059689 3 -2 0
1747 1 4.865915135505752 8.534838662508928 5.921422949717863 -1 1 -1
1981 1 4.207450976694655 12.267307590479044 5.366937549327649 1 -1 0
293 1 8.161274428082184 10.29115898102988 5.24253268889132 3 3 0
586 1 5.053188867349595 10.718181822892188 7.685281226845147 1 -1 1
1528 1 7.1292513033598 8.835080799957382 6.812982408761538 2 2 1
1587 1 5.8682752658233674 10.64691161095207 5.60761484311202 0 -1 -1
539 1 6.4606229827697925 9.064853760855371 9.464153261597158 1 2 0
236 1 8.909911981821503 12.391863376624967 5.909157765859688 -1 0 3
1427 1 7.659101569702486 11.19821470249784 7.5996842731727785 2 -1 2
1502 1 8.66240594405395 9.269939299522866 8.99674761546022 1 0 -2
1277 1 13.652835585882654 11.053552696802974 1.303444817195919 3 2 1
1851 1 6.808884263499891 5.366238431593041 13.908612940277761 1 1 0
943 1 9.44022416478008 9.423855054346406 6.723157938720967 -1 -1 0
1348 1 10.14699829566606 10.924140778652607 8.818109393433996 1 1 0
1103 1 10.977017371311574 8.493546448177387 4.9138891581562865 2 0 1
19 1 11.727048406644828 8.86358088003176 7.362060338228398 -1 0 -1
1403 1 12.47646870058146 11.075994111944441 7.869109756408166 -1 1 1
1040 1 11.077779124379902 11.017712981908726 5.942157565329636 -2 0 1
799 1 13.811772782510605 9.383572569613632 5.7610274771647845 1 -3 -1
666 1 0.30605205948943337 2.2913816022893383 12.898676481606701 3 -1 1
833 1 1.6426250943925127 16.10814046257385 6.01139922656309 2 0 0
219 1 2.722576149627329 14.015972464569158 6.6941451055133046 -1 3 1
724 1 1.2268932665155077 13.891473574656166 4.751493949411135 1 0 1
1723 1 3.2125192699821437 12.615185814090642 9.80457020714764 0 0 0
1584 1 -0.09187193146152095 14.224618532754397 7.298412260390966 0 0 0
989 1 4.215306131048385 13.174715234291133 7.989291570731945 1 1 -1
50 1 8.288058001440977 14.456893585957802 6.394955383618858 0 0 -1
83 1 7.624742008369828 13.518402354779582 8.47046969051705 1 0 0
331 1 6.339266386441329 13.007178651022594 6.553409186088641 1 0 0
1843 1 4.135967162681641 16.136562772742398 6.583690537201386 0 1 1
1111 1 8.412354138562689 16.622281123164864 5.0761475554245585 2 1 -1
1026 1 6.085064407258606 15.143327960667552 7.453971518754372 -1 2 -1
510 1 9.288223498872322 15.375276467212856 8.734891237059255 -1 -1 1
665 1 13.787787646395053 16.373613210125708 5.494790446000891 0 -2 -1
1639 1 10.048888467713837 13.170883869232696 7.711481549453929 0 1 0
737 1 12.200555737660057 14.480176559895225 7.623963943466247 -1 0 3
8 1 11.526077824426332 15.467592323323439 10.176918474885355 1 -1 -1
1036 1 12.484835638794848 12.816914439704364 6.312666241397695 -1 0 1
1015 1 10.392425694043148 15.83282742350951 6.499466051935544 1 -1 0
929 1 6.538294532754667 6.2828433730631446 0.27274664717909036 0 1 1
35 1 -0.12299255651539334 9.786183420116215 1.505007089203114 -2 -2 0
476 1 10.5131668926044 27.159448922811684 12.230341468300306 1 1 0
1360 1 3.499382188136785 16.32589369332801 4.483919137172851 0 -1 2
1464 1 3.610830083146686 18.42604573900627 5.167063788739029 -1 -1 1
487 1 1.0195929645287336 19.34758485443428 6.512602330039244 1 2 -1
890 1 3.2230807498140925 20.29774293499212 7.984324482117769 2 0 1
472 1 0.8803159279206683 16.769889967833986 8.215152229095835 1 -1 3
285 1 1.2831072081709676 19.03317232518784 8.990757008971206 1 1 1
1246 1 3.5114797135860987 17.961780707105724 7.699156849615727 1 -1 1
1715 1 7.798201533849767 16.76103541609929 7.355028129166599 -1 0 1
1853 1 6.064790486664573 16.750681463032194 5.193545121673805 1 0 1
1312 1 7.620437576828343 18.766852842179894 5.323561986213446 0 3 1
1563 1 5.196714867812466 19.08565873350294 6.509756117569509 1 -2 2
143 1 7.924740191415285 19.301397919139916 8.316692576974958 3 -1 -2
1648 1 6.482120095076191 19.925283833480048 9.597805559435525 1 2 -1
1995 1 7.0941649310687405 15.559950151553357 9.62824122425694 -1 0 1
960 1 12.397510269676237 20.628557403779414 3.4223969601591597 -3 1 0
280 1 9.615659478805728 18.09251258487339 6.441162998736299 1 -2 -2
1431 1 9.648333283288146 17.550567728233307 8.82159935951395 1 0 1
110 1 11.502283231951345 19.433442649982638 5.347274380302031 0 0 -1
288 1 13.300771295395096 18.652565315187577 6.941116340589536 1 0 0
1445 1 11.834403073041374 16.80762528224812 8.13202255368827 -2 -1 0
1540 1 9.584211756506418 20.790760081070996 6.370610910189346 1 -1 3
731 1 11.189111839795487 19.41382779827211 7.996667038153092 0 -2 -1
1711 1 2.07773008326322 25.71887501423287 11.57905913542907 0 0 1
805 1 9.725133139777444 20.076291938987996 9.826442372205412 -4 -1 0
1220 1 2.3675615408463426 27.07412313682504 9.357741596147438 0 0 -3
60 1 1.2405735645489417 22.336371703133636 6.183190765819221 1 0 0
1746 1 2.8726486182645736 25.20863961328668 7.504232044577915 1 0 0
1566 1 3.3610143912183283 23.3356879522542 5.187654372756427 0 -1 0
431 1 3.095419750375994 23.055369572073907 7.847019265819718 -2 -1 0
1928 1 0.70881423819727 23.33136339018045 8.12242798941845 0 -2 0
1039 1 1.0748112945651513 24.585981699619545 5.853304510979016 1 0 0
1424 1 8.4178684238257 22.933583866458058 5.7755120667946755 0 -2 0
484 1 5.185035393502921 21.73452154783965 8.469012551570653 -1 0 0
835 1 6.202433081382577 23.52044733749976 5.314203042951213 0 0 -1
1258 1 7.132616169833489 20.78351230786787 6.693322036352827 0 1 0
1996 1 4.714572597321092 24.130298331067213 7.120311980474648 3 1 2
5 1 4.945060799133934 21.727955027414446 6.204041310673483 -1 -1 -2
135 1 6.865263667700012 23.065877718661625 8.036076760296371 0 0 0
131 1 8.61293564012174 24.027249807249248 9.580529094445295 -1 0 -2
1297 1 8.925154548460993 21.935829798931604 8.17889859524005 2 -2 1
1645 1 5.044323766400853 23.812643572865746 3.223514620919684 4 -1 2
1508 1 13.24797578230704 23.810401794565074 5.2248271772904005 0 0 -2
1378 1 9.386569923347654 24.457605446932856 7.128783971768745 0 2 0
938 1 11.590201944129525 21.528342724296497 8.485424361805066 0 0 0
797 1 13.014527113045544 23.176944184319947 7.552990006711979 1 -2 2
914 1 12.636645580613063 21.309759364210393 5.6973590785409085 2 -1 0
1243 1 10.442967487047133 23.822368277224275 4.368450880810172 2 -1 -1
690 1 11.005730697425644 23.820648716410734 8.804369296721735 4 -1 -1
1290 1 10.919129978969055 22.709666512030307 6.425517638097992 0 -2 -1
182 1 2.4134807477354525 27.020839804449842 4.466931651971126 -1 0 2
1369 1 0.9635204227554408 0.5095513144086826 6.928897077583128 1 1 -2
895 1 4.363049066374119 25.530028033775096 5.015057452582198 1 -2 1
810 1 4.319032561790779 28.04554003298247 5.834261204159953 0 0 -1
1068 1 3.4910940311337533 -0.23127497979873446 8.137310466132025 1 1 -2
117 1 2.1314537497957664 27.392743222133905 6.843087435068119 -1 0 2
594 1 4.9554247187385485 26.595125074640464 7.862722556715642 2 -2 1
101 1 5.646591348444321 0.37246068518219044 6.984414168598654 -1 0 1
2006 1 7.222032362270551 25.12587379536691 6.971830609103462 2 -1 3
1223 1 6.574420913187022 27.51368439120386 6.052446369228021 0 0 1
461 1 8.172112349977008 26.494647698002293 8.319929871381744 0 1 1
1206 1 8.766838463570185 26.191309590788343 5.861044482915138 -2 -1 0
1818 1 9.38240443307746 0.4517928509515797 5.390137498012183 1 1 -1
1829 1 10.6117003749625 26.188620114410583 8.549983356958364 -1 0 0
1655 1 9.727786879374774 28.178426387778565 9.516365747748214 -1 1 -1
516 1 11.79085060330819 25.119968682247915 6.6517254022287124 0 -3 0
509 1 10.65155750914076 26.35442568983819 4.473904792549412 -1 -2 0
1454 1 11.971684156715448 27.322590826942456 10.020227206810333 0 2 -2
1769 1 12.61954562022728 27.49990022901446 6.57680974780475 -1 1 -1
485 1 12.828913027307708 26.068625269213026 4.739860387196874 0 0 0
750 1 3.6513613455231972 0.8895282281961427 10.038805113592685 0 1 2
452 1 3.814565175111661 3.1407225435486126 9.805647862181257 0 0 0
3 1 1.5279488305423428 1.9207597837036774 10.724257282860231 0 -1 -1
1219 1 1.7685392012839332 4.158512713253936 9.669353592264905 0 -2 1
1870 1 2.194189822021447 0.7306896755095535 13.401085323113355 2 2 -2
558 1 2.0430745641785704 28.404436506788528 11.413889440668616 -2 -1 -1
1379 1 0.9546343406910536 -0.12007133976000567 9.292623478528109 -1 1 0
881 1 0.22496271406342527 7.640061952465398 0.028571364957138246 -2 -1 -1
42 1 4.487554208236907 -0.1448137460435332 12.191303578781746 0 1 -1
1031 1 5.868838442649243 1.3123867316785396 9.036311701561152 0 1 -1
1042 1 8.930332366619563 0.06341554239270669 11.874480899799032 1 1 -2
378 1 8.377913471483161 2.4482787349316557 11.700857885656621 3 -1 1
1412 1 6.330332673928991 28.10812140465491 8.847601294819295 1 1 0
1391 1 7.208162265639222 3.201835782586233 9.804186257453411 1 1 0
1460 1 14.04820457205615 18.8344279924816 4.259073995272649 0 1 2
2046 1 7.904066424921798 0.7638817671598552 9.599736443790992 1 0 0
375 1 6.425161452799177 1.1742051674330936 11.570181691142379 0 3 1
1273 1 7.197864233737531 0.39364425312080087 13.497800894129739 2 -1 -1
440 1 10.327804619519581 1.527499893353801 12.854341991218192 2 1 1
366 1 10.549856714368852 1.2474612002630292 10.420497599590158 0 0 0
1371 1 13.142802571879331 1.775040523450433 10.247476716753738 1 0 1
1292 1 11.874615226330818 0.037239693060239276 11.671403624570406 -2 0 0
1735 1 11.99097248391737 4.498475108162072 10.93754638577084 0 2 0
1062 1 12.2551622597243 2.6262202496774254 12.453339131669987 0 -2 -1
1572 1 12.772008849604076 15.569073554497209 13.571822727821317 0 0 -2
837 1 9.834904899348071 25.95106527350087 14.0224012939184 -1 -1 0
927 1 -0.28074139721054814 1.8796948997601426 8.713407681521234 2 -2 1
603 1 0.8136131164687657 6.568733439718016 10.042082500515205 2 1 1
167 1 3.463613831731785 6.388470200670733 9.581669971307022 0 -1 1
254 1 3.221111600821328 2.6978190143238203 11.979752859676223 2 0 0
1791 1 1.3841294858028126 4.370819683447607 12.130214524518482 2 -2 -1
1663 1 4.3418334266809575 8.038488460083876 10.918100310894113 1 1 -1
1204 1 3.473816867642216 4.96555905803692 11.484003241306517 3 0 -1
1772 1 4.819376011429144 4.1409953368125585 13.595147392627371 1 2 1
1227 1 9.6243734418811 4.123686773908987 10.299474142788949 0 1 0
1436 1 5.498433699641773 5.373142233847527 10.169072320768628 2 1 0
333 1 4.9043858083427505 6.5634716043905 12.640249665003573 0 0 1
527 1 7.906018065268514 5.567212880101631 9.24894126476665 -2 0 2
1189 1 7.498230275004263 4.779627583698241 11.816183270219614 0 0 0
1809 1 5.728109157299624 3.283108429246859 11.54442834817546 2 -1 1
958 1 6.863236158341802 6.895521480309255 11.210142306282359 2 -1 1
29 1 9.049291185211992 7.329206471741131 10.468067864700703 0 0 0
2034 1 9.422605287788118 8.420458842886458 12.912977845668888 0 0 2
1819 1 6.442224168490694 25.54991121779439 9.535526060831367 2 1 0
396 1 13.842767304801876 4.1129005783086665 9.419472169316522 4 3 1
1686 1 10.215206519694172 3.8567527285039844 12.596412520172667 -1 0 1
1390 1 11.661947352338307 5.860074714395195 8.901965892420872 -2 -1 1
195 1 13.149799921632567 6.140310270915892 13.041142452470476 1 0 0
392 1 9.610126102316093 5.958371266624053 12.137481029034802 -2 1 2
1863 1 13.197886064584647 8.057957717630895 9.254069205695433 2 0 0
1323 1 11.433556531670865 6.753292392947943 11.207350668344818 2 -2 0
534 1 6.595931962252558 25.25275486860697 11.90587493381818 0 -3 0
1452 1 14.070197091220756 27.17206523346126 8.268452878181925 1 -1 0
253 1 1.3690119057556955 8.509937395230084 13.718871894701469 2 0 0
368 1 2.4318026162299247 10.012638155573875 11.710652186520754 0 -1 0
1959 1 0.9805085853881481 10.902841675873708 9.92951337776317 -1 -1 2
513 1 3.8461742009797346 10.159100887742646 9.65611067297894 -1 -3 1
669 1 1.2988181233793303 10.965973162008751 13.796515885207127 1 -1 1
536 1 8.666075367427753 26.36773999991813 10.651493339869422 2 3 -1
520 1 3.8694100285161523 8.923752555442976 13.114700459326325 0 -1 0
1226 1 3.48656686319204 11.586115783850092 13.40901538872232 -2 -3 -1
1718 1 5.9538253083276835 10.409282860556122 13.942370703801021 -1 -1 0
1719 1 6.377583641134898 8.042605374742987 13.354655787635863 1 0 -1
1055 1 5.90959009910046 11.894951868620138 9.582217482114228 2 -1 -1
247 1 8.038081168763583 10.358849171322854 13.675166987552645 2 -1 -2
792 1 5.496992217852622 10.164581562406426 11.811465233110019 -1 1 -1
1630 1 7.904744843965203 9.309248174037153 11.337408226984888 2 3 1
661 1 8.061294158120663 11.451230687432735 10.10301536476374 1 1 0
727 1 6.752915526879765 12.136475554603535 12.257425733571557 0 1 1
1756 1 13.45096458924402 8.05258792955595 11.64414075816869 2 1 1
1699 1 6.579084032456895 27.65069327564767 11.306282780297268 0 -1 -1
1052 1 10.835605114455209 8.474273265691041 9.349408245135063 0 0 0
857 1 9.98241390441858 10.191792841175348 11.139028466877503 2 -1 0
641 1 11.512359511504572 8.84945796345476 12.14783466464718 1 -1 3
1319 1 13.098436165409229 10.258476280038726 12.373035672698892 -1 3 -2
863 1 11.360737044979837 11.752323591857536 11.591726666715772 2 0 2
1620 1 12.281115346014198 10.028254239763553 9.940743515490485 1 1 1
1380 1 9.591553025920946 13.153183951637054 9.937046429486434 1 -1 3
1957 1 5.741391221860653 27.07353653638111 13.721650505342607 0 1 1
1782 1 1.1136919490793413 15.101104955440235 12.4856549459847 1 -1 0
1397 1 3.8542891153054004 15.341781948579154 13.637111069772814 0 1 0
215 1 2.2865290151832873 15.031706002635726 8.575184538796034 -1 0 0
1814 1 1.785181363569122 12.339257349023967 11.90839391674415 1 -2 1
265 1 3.2464773180927264 15.091841820852315 11.30951963028853 1 0 0
1441 1 4.4515639695975135 12.802314006391354 11.568286163149201 1 1 0
353 1 2.0425167100989974 13.538330837743095 13.691638049644958 -1 -1 -1
1422 1 1.0822313888984956 16.17791761741496 10.537541514381205 -1 0 0