LAMMPS data file via write_data, version 29 Oct 2020, timestep = 300000

2048 atoms
1 atom types

-0.11707336593141981 28.46907336593078 xlo xhi
-0.11707336593141981 28.46907336593078 ylo yhi
-0.11707336593141981 28.46907336593078 zlo zhi

Masses

1 58.933

Atoms # atomic

1579 1 2.0180205118671948 2.837046190672053 4.150166340890359 1 3 1
922 1 1.4723457980506078 1.5676621312413608 1.1833395165467246 0 -1 0
751 1 3.238601850972777 2.6272867311703485 2.0309533912304842 1 2 1
56 1 2.399327151878687 0.10887179267098515 2.872090983864787 -2 1 0
925 1 3.6258572149759294 1.0277060561547497 4.603301347118903 2 0 0
1032 1 0.7892902866083513 0.6227923890083037 4.859413516892939 -2 1 1
464 1 -0.10597157289846197 5.937773616528478 7.150120927531349 -1 1 0
289 1 13.55593991847442 24.559653815114345 13.882314585464119 1 -1 0
86 1 4.5387003365512015 3.203615986873467 3.9366015678587862 1 0 1
115 1 5.077263245114869 0.8783279775791591 2.649069526722729 2 2 0
284 1 7.688195454528148 1.3216915838245096 2.746775822845428 1 0 -2
1633 1 6.1378286930220085 2.8950645183267762 1.9157283822756819 0 -1 2
1077 1 6.728799970774675 0.18242887871498265 0.9370650602124906 2 2 -2
902 1 8.777778139406559 3.4987711471332914 1.9596260010950242 0 -1 -1
288 1 7.2475216749752445 3.722408238340446 3.7562644316819696 0 1 0
1261 1 9.699876925063746 0.6687111965180556 0.7641600930791496 0 1 -1
1686 1 10.58196704298574 1.9857718018862793 2.5863069848088314 0 0 2
863 1 12.859314365687998 0.9092782737452232 2.9405834640284216 2 0 2
628 1 11.89201407222807 3.180371555363862 4.103117329615717 1 1 0
1196 1 12.328425855341624 1.6252955158171287 0.563761213035714 1 0 0
798 1 13.940077806984752 2.7674088727962785 2.220787916851562 0 1 2
1485 1 8.687601389970371 9.439388040728163 -0.050479769598832325 1 3 -1
2015 1 13.971168597681498 16.04002464006797 8.24596986926054 -1 0 -1
819 1 1.2985697297538865 4.054828978523368 1.9792485115801575 1 -1 0
98 1 2.9132205340605943 4.935279857511081 3.3241339576505338 1 0 -1
219 1 2.4185002378075113 6.222957128413899 1.429755559442744 -1 3 1
563 1 3.4693614332794187 7.774880403179097 2.954619946942112 0 1 0
509 1 1.2195080573309254 6.4956201274772445 3.1390064814468235 0 -1 0
1714 1 0.23795693417498043 7.415331350832119 0.8550325190129486 -2 1 2
232 1 9.022484050976459 25.779734483824186 12.853586195599519 1 0 0
1202 1 4.573442726757269 4.408322539552262 0.9460085244699123 1 -3 3
351 1 4.908407318678499 6.730949898111667 1.1428211083443334 3 -1 3
1212 1 5.448086770518795 5.22272278200323 3.324979455164908 0 0 -1
1509 1 6.975361919829396 5.035980067190203 1.3817424729900118 1 1 -1
455 1 8.263133892759479 6.1102192826286235 3.088009501901192 -1 1 1
698 1 7.982291764536578 7.139862890023095 0.6202135166707302 2 1 -3
1223 1 6.576407188971664 7.650905783844439 2.672816190066095 0 1 1
463 1 11.748083452233724 3.908543218604346 1.7557899018847472 -1 -3 2
1709 1 10.207107130105598 5.730952970803949 1.2099494734745855 -1 0 -2
298 1 10.121178218076393 4.547736180567386 3.439063077999951 -1 1 -1
1161 1 13.00860946246054 5.268074078981066 3.473012294219551 -1 1 0
867 1 11.195727132988226 6.705021422753139 3.088512827571407 0 -1 1
430 1 12.646618356320445 6.303484119418772 1.11885552931139 0 0 2
793 1 10.890293338198878 8.070339967601187 0.423342458720664 0 0 2
792 1 9.39652829766002 7.047911888542524 5.030190032766037 -1 1 0
1747 1 12.722830897167801 7.805797511707706 4.907889970071171 -1 1 -2
1433 1 13.451133737711695 8.554660577456865 0.6285022831931657 1 -1 0
118 1 3.187608254600855 8.399766885237382 0.6077101082671263 1 -2 0
90 1 1.5611280879120064 9.058515381315937 2.345316137759108 0 1 -1
1658 1 1.1284910949540028 11.316128701066893 3.484704904600568 0 0 1
702 1 3.038165458938633 11.086421051993764 1.7935532846650266 1 -1 0
20 1 4.592726192679157 11.975053314392845 3.3925475746195293 3 1 1
1612 1 3.1438597739335385 9.969693534600495 3.9391396340240847 0 1 2
1809 1 4.770025996713643 9.369907894262678 2.157044088072758 2 -2 1
1298 1 0.12420458903267953 26.955577622537433 5.420345377798134 -1 0 1
205 1 0.2610791689196517 20.246493814978663 10.787887065170418 1 -3 2
687 1 0.34878839261816175 8.820415009031553 4.379319281531172 2 2 0
393 1 5.938703736988775 8.67217348420987 0.3960786050054579 -2 -2 1
834 1 7.498585138773579 9.833778617813905 1.973183778556952 1 0 3
1429 1 5.842227009015644 11.52790046682279 1.5022040194503752 2 1 2
1394 1 6.1580543618747114 10.24339096413874 3.749297417530438 0 1 0
1153 1 7.717136817720039 8.66923287111333 4.457735657557048 1 1 -1
104 1 8.991334653988229 10.842518958090091 3.6678507184086486 0 1 1
1362 1 8.654461555761568 12.072277059699967 0.9547104463554583 1 0 0
631 1 5.102849230525096 7.8457433234382234 4.6044615383016465 1 -1 1
1803 1 9.360986312743973 8.272852446634506 2.638106321760736 1 1 1
61 1 13.560647674976408 10.039209996517979 3.65177246550642 -1 1 -1
923 1 13.382201904514453 11.034921563710824 1.2769990303818013 0 0 -1
1124 1 11.99506498242942 9.134967872136844 2.2465875450870914 -1 3 0
1068 1 10.133003129136343 10.59025061067311 1.6586073448474847 1 0 -2
462 1 11.534259757771274 11.53841698871644 3.18424865349697 -1 -2 1
1486 1 11.062335376794657 9.252260104627174 4.146825915853182 -2 4 -1
1567 1 8.016253878925864 2.4303039007675955 -0.11498140527452289 2 -1 2
1333 1 1.0309067295922734 12.236936758133671 1.2634710868246581 0 0 0
303 1 2.656696494396738 13.26107335760169 2.9115880433051364 -1 1 -1
1225 1 1.91088165458627 14.446842402904858 0.6535034944557362 0 -1 -2
1001 1 3.161604981949996 15.659956289911191 2.1980346395305173 -3 0 0
1037 1 3.966114114763629 13.195188588194114 0.9504310238601683 1 1 -1
1568 1 0.5981911385974724 14.82265707475124 2.5455015150211597 -1 0 2
1411 1 3.6908197066106903 14.197760685243313 4.750311968182833 1 -2 1
441 1 6.763382538021163 28.23698883593685 10.09105270708611 -1 -2 0
212 1 7.38543869641712 12.524556551046743 3.1828906688683642 1 -1 -1
1545 1 4.860790272023206 15.170841843986985 0.42361270180368193 2 -2 2
329 1 5.491251576514993 14.061865820172942 2.5855841918066433 -1 3 2
1357 1 8.39726283714752 14.514573826068476 2.295281573501305 -1 1 -1
1069 1 6.8569131627821225 13.387138629785223 0.865599791407909 0 2 -2
782 1 6.9906459713594815 14.97375690882173 4.364433759781227 2 -2 2
1901 1 6.655735838085374 16.247795581571566 1.6785909675324926 2 2 3
730 1 9.681138649903358 15.327652451104408 4.189968452001124 1 1 -1
1160 1 9.561387833071768 14.14226694688689 0.39707957103745506 0 0 0
1661 1 9.813182123563791 12.9170386971185 2.959141791770931 1 1 -1
657 1 11.46526518816342 12.591595219660652 0.9429648715956145 1 -2 0
1916 1 12.880688999069799 13.435471567214654 2.6913937838999846 -1 1 0
848 1 11.112483842710349 14.990567281623505 2.204445872138996 0 -1 0
741 1 12.518887450196697 14.71121435637194 0.1837776578620382 0 -2 2
339 1 7.880462130713549 24.464568123012356 11.103557730603898 2 -3 0
1883 1 13.805077906198752 23.29316144358379 10.322013287667971 -1 -1 0
1611 1 1.5253389352053868 9.977455138663371 0.03246354432444862 -2 0 2
537 1 1.9999406363273122 16.07522612923099 4.489116909676588 1 -1 -2
1711 1 5.383735104399259 0.21562478613938119 12.049199286030412 -1 1 1
920 1 2.272711930573556 19.278120491230354 0.7229073925737647 -1 -3 4
1589 1 0.8668076937527784 17.10130321053211 2.0022630547805953 -1 2 0
126 1 2.9439330947961646 18.2536352687163 2.8386458886447055 0 1 2
1188 1 0.9446425322256948 19.628561516767924 2.8896081885496767 0 2 0
1869 1 4.625435718548138 20.09827541275257 1.8720807771527421 1 0 -1
2026 1 3.025510260328693 20.49445244077544 3.7911293620151714 0 1 1
810 1 4.720809531949579 17.640740444407207 1.15320196954651 0 0 -1
1806 1 4.725569876832235 16.31498588145893 3.7259646433823654 -1 1 -1
399 1 5.690548443256737 18.536914179087688 3.161395805696042 0 1 0
251 1 7.358245396261679 18.613120979094873 1.2865493212298091 0 1 0
372 1 9.13980988431615 19.08146101348911 2.9251784901323887 -1 0 2
1492 1 7.745257394988226 17.336652026538836 3.3883191485304414 -1 0 1
1441 1 9.37011493504045 16.704008062382442 1.6553578204278974 1 1 0
1657 1 12.65226159218237 15.92773406289479 4.35972990525923 1 -1 -1
1359 1 10.571566467728857 19.12909752318948 0.6023131655322806 0 -2 0
1766 1 10.761961218384727 17.26621691247633 3.6258780571230753 1 2 1
1149 1 11.927387805923543 17.117144808679384 1.199855575469439 0 -1 2
877 1 12.983557386096614 19.63566832966159 0.5923387845974901 -3 0 1
1837 1 13.195188508119307 18.218482665835737 3.199587262416996 -1 -2 2
180 1 11.519221844610465 19.822876055255243 2.5188732083741217 -2 -2 0
1938 1 10.088392547372976 20.53143439263134 4.299784121108021 1 -1 1
2034 1 1.0731905809304143 22.932240448213186 0.23124246962799816 0 0 2
1363 1 1.5266537020412623 22.060189566669344 2.9976121570866976 2 0 1
355 1 3.9845658214027635 22.565828601629427 3.1500142440876284 -1 0 -1
528 1 2.9146903827806896 21.838717962937444 1.220867204992108 0 -2 1
752 1 0.23760968864593385 20.796690615316564 0.7129969857421726 -1 -1 2
1478 1 3.7103579413845047 23.659162474440294 0.09529933110813271 1 -2 1
1717 1 2.3163711465605217 24.10868530303312 2.2300738460590375 1 0 0
516 1 7.042423591795229 20.619973776777655 2.2514352069315104 0 -3 0
1019 1 5.45068895108353 22.421516954176113 1.1458128657004667 -2 1 3
1123 1 8.03606541318941 22.871709174589505 1.250128063563779 0 -1 -1
1213 1 6.691636008952843 23.10511305215622 3.156614453742769 -1 1 2
783 1 8.418774070080735 21.639697392114925 3.792266900369425 2 -3 1
272 1 5.544285245007523 21.08065903247823 3.9435066946249524 0 0 -1
1219 1 5.055441424771247 23.64932323820141 4.926496165475403 0 -3 1
723 1 0.11715411534279688 6.1662541539830835 13.533349144337894 1 -1 1
1845 1 14.041898624998208 22.84705175264022 3.699876908437821 1 -1 -1
1682 1 9.361049444049417 23.643260335871318 3.012146555688053 -2 0 1
1712 1 9.684113237695605 21.467678987363023 1.7185158338568176 1 -3 0
1400 1 12.867810905356036 21.87895437520524 1.5636158699075249 -1 0 1
1128 1 10.880113460687019 23.5151618186932 0.7111727843841605 -1 -1 -1
1502 1 11.44429835825505 22.407463772764167 3.231191236401699 1 -1 -2
1286 1 12.74546466435106 20.5593398797771 4.434858051003329 -3 -1 0
1428 1 13.819697798213108 23.920278110476062 0.840175473946967 -2 -3 0
1827 1 3.908702874847844 28.446156786654587 0.7685531881823847 1 -1 2
879 1 3.1418340711226302 25.96984588388296 1.7874144260769829 0 1 0
361 1 0.5122204000803318 25.69289412196872 1.741581443836265 0 -2 1
291 1 1.4454440589870514 26.603515427599014 3.594381514959754 -1 -1 0
827 1 3.5191468220961912 25.100022507367 4.147084226641273 2 -1 1
2036 1 1.878325240361309 27.618411756109666 0.4561894590944471 0 0 1
970 1 0.6311686740912332 24.511942187292092 4.326402501719497 2 0 3
1185 1 13.837351275239538 15.82385593531244 2.200807549681251 -1 1 0
786 1 6.5407110946346885 24.284193586208055 0.30601232159447755 -1 -3 3
1648 1 4.336913568587619 27.2517460351664 3.4138860626587033 2 1 -1
1347 1 9.05077880752062 24.797843894238447 0.059583771279855896 2 1 1
1252 1 4.890819450281246 24.68942456306346 2.084742202568692 0 1 0
985 1 6.92461907918626 27.849372046424 3.505475195076755 1 1 1
1681 1 6.011087902796618 26.72906165481634 1.4610259555152896 1 -1 3
11 1 7.452782902987263 25.308354770103826 2.488052383282055 0 1 -1
982 1 8.576736561044084 27.104234731357217 1.803832028490481 0 -1 5
468 1 8.504841891756497 26.46582745065333 4.61948942002856 0 -1 -1
999 1 6.1361792515266425 25.706206030438615 4.254785533237793 0 -1 1
1350 1 9.79254104041373 28.32424514709892 3.5503219470270917 -1 0 -1
651 1 12.125152318175886 24.59864037134168 2.543985274243588 -2 0 1
438 1 11.582234890960551 27.970955462657642 1.6818482294685146 1 -1 0
152 1 10.390693665826229 25.859753416975487 2.3590281241328603 -1 -1 0
634 1 13.433266306164374 26.692572020719147 1.8790987910795716 1 -1 0
846 1 11.72658883289264 27.053037735005958 3.991760943069984 -1 -2 0
1391 1 12.207174042989566 25.305190124717214 0.10508932269729035 1 0 0
1927 1 12.018232498425292 25.96063575564132 12.681231426292426 0 -1 2
1368 1 0.4910094505880144 1.8063810645323946 8.80709297723274 1 1 -1
518 1 2.129680791591986 1.4698861012995645 6.6800695972962325 1 -1 1
1954 1 3.250138743722953 2.5990371500789213 8.55602488871833 -1 2 2
1105 1 2.516171009394549 0.2068205644332639 9.255717001378349 2 2 -1
726 1 0.45695361183542826 3.3787266772550892 6.109026966023285 2 -4 0
484 1 4.298061724049766 28.44850344240458 7.02231695945556 -1 -1 0
559 1 10.868706680160491 10.904965318784525 14.057920818105568 0 0 0
423 1 6.303385346079864 1.6795875653315961 4.419787671361953 0 1 1
718 1 9.257551080259866 2.5345202306228756 4.379966728006024 0 0 0
1208 1 4.951887097975614 2.4162917000811004 6.491980293030129 -1 -1 1
1336 1 5.139790044623593 0.959396384493862 8.94882387879932 2 -2 -1
1516 1 7.846299255435513 2.5111891723242428 6.0303542862700406 1 3 -1
446 1 6.155651382827985 3.3840500528176176 8.110373509056245 -1 0 -1
1860 1 6.452308609949444 0.895380224944277 7.0093430875211205 0 2 0
594 1 7.865991733266871 1.4991574187029486 8.882699843077575 2 -1 1
1184 1 8.089189835726696 0.13066819204939603 5.677040181395107 0 2 0
711 1 2.659749486571053 16.938612780824705 0.13272847758518333 0 -1 0
1690 1 13.837334317234083 1.7614115489103224 4.9259564564834 1 -1 0
203 1 11.102488653574543 1.0850317402103853 5.132369108811701 0 -1 -2
850 1 9.725006183460831 1.2576752812383278 7.011631947032651 1 0 0
1290 1 10.28817490816953 3.5311364265732728 6.190053141458682 0 -1 -2
1340 1 12.146558798809911 2.174454136720985 7.022963600668761 2 0 -2
1030 1 10.793968096597286 2.456809879990338 8.9770509105528 1 1 -2
5 1 13.673509620505937 3.076525447870721 8.607170444712137 -2 0 -2
851 1 11.609668262147034 -0.07907633552769751 7.671486882721356 -1 3 0
1541 1 3.0371000237390806 3.819835441901131 5.822830152201609 1 1 0
763 1 1.5968510389267436 4.154502035207558 7.905982814803062 2 0 2
769 1 1.556490269897785 5.393823300987763 5.368420809682325 -1 2 1
1862 1 2.5851772749491797 6.504927283554929 7.323623985303064 0 0 1
1946 1 4.018890399118772 5.815540319935542 5.4231168689519125 2 0 1
817 1 4.01161592836165 7.644988852018792 8.798138800488701 2 1 1
1233 1 2.6790681381579406 7.748616447427167 5.119149090413328 -1 0 2
555 1 4.207157646453929 4.618564477487863 7.7136886494067465 1 -1 -1
1228 1 0.823784893934168 6.951641171915553 8.986292266514315 0 0 0
448 1 4.953902965789681 2.0761515277919997 0.03578895262633794 0 -1 -1
930 1 0.021939414162970156 4.7351885998902885 9.722132731760476 -2 1 1
88 1 8.676011699457396 3.6924218808348033 8.01927908882931 1 1 1
1278 1 6.843411076201542 6.563928330333748 5.159289110665599 2 1 0
35 1 5.8357159738709425 4.543757321790651 5.703469753279033 -2 -2 0
129 1 5.271568215195262 6.668216915349574 6.965254394671388 2 -2 0
273 1 7.154338333367059 5.466733164886144 7.451150896742257 2 0 -1
521 1 8.530265021616898 7.771000950787219 7.097750054769448 1 2 2
661 1 8.511319924208665 6.277682998473646 9.037947263389775 1 2 0
1186 1 8.325116143357873 4.8430249125163645 5.483757798505717 1 2 -1
162 1 6.844037308361223 7.917396998650473 8.498614610098274 0 0 -1
429 1 13.119436544765085 4.1254786365344485 5.91918031841377 0 -1 0
977 1 11.334377478738313 5.69658722015839 5.33292482384484 -2 0 3
859 1 11.652423707316027 4.5716180053689275 7.716208118536201 0 1 -2
491 1 9.919162037071146 5.832312385398097 7.252410280642876 0 1 2
394 1 12.856740260918086 6.5903304295500265 6.964245107148207 0 1 0
1678 1 11.39871156086737 6.814122082507749 8.852714549229967 -1 0 0
838 1 13.045217634709218 5.371430803055451 9.598151189472526 -1 0 1
211 1 6.4001725941692165 25.028479960953213 13.222524789322872 -1 3 -2
1071 1 0.8456747432855517 8.074273251668938 6.614718606849568 0 0 -2
914 1 4.005338425443003 8.628232612990177 6.611659177521027 2 -1 0
1830 1 1.744105906935569 10.252499495875107 5.875532502057986 -1 -1 1
2030 1 3.279980200354572 11.053053259076693 7.619298264514907 1 0 0
460 1 2.1545038796227347 9.203303271442703 8.146917610326819 3 1 1
1857 1 0.41021333826707607 10.637415941121757 7.887401955329464 1 -3 1
1785 1 4.995954178015846 10.62065800491932 5.790789424585063 -1 -1 1
1906 1 5.17000777012062 9.66475170800083 8.253334982007415 2 0 0
108 1 7.398683214893304 11.05769181571559 5.843317449759799 -4 1 0
466 1 6.415456600325804 8.858161897472854 6.3248134660762 1 2 0
1055 1 6.051110957938022 11.602416135626685 7.7555574604564175 2 -1 -1
1179 1 8.19199172319682 10.267712023766528 7.928736656971141 -1 -1 1
773 1 9.61439985521426 9.730837998370454 5.921207014302945 0 -1 0
240 1 13.744579072296862 17.145335654423498 5.811388986783579 2 0 2
2002 1 11.026646365124341 7.964229398975823 6.716582781168978 0 3 2
944 1 9.777392329318578 8.51242263995938 8.763883244963477 1 -1 0
860 1 12.422059700577524 9.160702419736262 8.471462324408911 0 -2 -1
22 1 10.739856185307806 10.56205757383674 7.967700106880402 -1 0 -2
805 1 12.411750311804388 10.260017917337404 5.769612673677888 -4 -1 0
771 1 13.620834785086961 11.028219149101337 7.733064316277714 -1 -3 1
1737 1 10.64912455766022 11.834579667243469 5.365754834479121 -2 -1 2
1438 1 1.1351004973445273 13.828699808055978 4.819656069232543 0 1 0
1284 1 2.933216925612274 12.169744231916154 5.126603999482771 1 0 3
136 1 1.6068125932941077 12.408292631407928 6.986220745977764 2 1 2
387 1 2.0760974056740533 14.79069705901918 6.644529716644835 0 -1 2
729 1 4.065036931324624 13.15603701492682 7.059571157902243 1 0 0
581 1 3.872166376191398 15.742676755665713 8.267217417745305 0 3 -1
1305 1 0.7302207580839188 15.52030789651774 8.259904099673156 4 0 0
1512 1 2.6578683965292513 13.820701214328865 8.707884482799818 -3 0 2
832 1 13.950374900028375 9.91152295653393 10.071504884951402 2 0 0
188 1 8.71868177758979 13.154586669371474 4.981294780344706 1 -2 -1
683 1 9.158423433751203 12.327837014391655 7.289541099164304 -1 0 -1
1776 1 5.346639125630345 15.041715851675738 6.11630675608179 -2 0 -1
1026 1 5.88353431621428 12.997490098580558 5.194613764764793 -1 2 -1
371 1 7.259848912164088 13.71974408249055 7.024142290162615 1 -1 1
989 1 8.51736677407956 14.809052153071027 8.899906142408788 1 1 -1
173 1 5.461946350153259 13.950306233980047 8.730655204378525 0 -2 -1
619 1 7.585091490430779 12.69754443407362 9.257599822115141 1 -1 2
685 1 8.208172827443898 16.26236389802208 6.179925209437244 0 -2 1
1734 1 11.280078415381304 14.00313868774417 4.622504858796009 -1 2 1
1965 1 9.965356102445135 14.437756004864486 6.841239180908493 1 1 -1
728 1 13.134429799064474 12.391897014869153 4.899703054398868 0 -1 0
1621 1 11.806366189622945 12.554064928105383 7.05383072556782 3 1 -2
1569 1 12.917406489343119 14.842325764723268 6.475200547198527 -1 1 -1
1323 1 11.359684854517088 15.474285548041754 8.39816626712027 2 -2 -1
1023 1 12.972061947794074 13.762988470661956 8.922026261507542 3 0 -2
1151 1 13.094311772448672 27.984093709931848 12.265309764091072 1 0 -1
1016 1 0.5206979584824966 18.868936927291898 7.168585772938726 0 1 2
840 1 4.216226841824042 18.781542861390662 4.973479833639304 1 -1 -3
445 1 1.7605164169212515 18.347368248114407 5.027952154518979 1 -1 1
1130 1 3.764716534474715 16.58502907635426 6.034715972172812 0 -1 -1
416 1 2.1997165638003855 17.189790227687332 7.917138233670348 1 -1 -1
213 1 2.988270166833064 19.46121208254418 6.878405010683896 1 -1 2
627 1 1.5590290304940575 19.511566849832327 9.062591487368945 1 -2 -1
163 1 4.350704274260826 20.17793618722925 8.633664812325687 0 -1 -1
1158 1 0.2890621876894986 16.08325568432717 6.015024582860499 -1 0 2
972 1 3.4280883919742977 18.126679125881196 9.649915560651868 -1 -1 1
451 1 7.140637042852706 19.74770394770625 4.646000121240334 2 1 1
629 1 6.493720153530113 16.10229774823364 7.998510582367651 2 0 1
1215 1 5.016540687172415 17.71731865770601 7.601779211662619 2 -1 -1
1419 1 6.066591601333888 17.506958237208877 5.551660224038864 0 -2 0
938 1 7.594580020900321 18.463603891055733 7.26910091270623 1 0 0
1281 1 5.687838647924706 19.708815796399037 6.540040849977345 -1 0 0
736 1 9.047151161823903 18.567959078906398 5.25269797665463 0 -1 -1
761 1 6.38317251681162 18.84308361126076 9.37679545302238 -1 -1 2
804 1 8.932964919098353 19.387640501091546 9.229817888464353 -1 -1 -1
79 1 9.299119697429944 16.926471461850817 7.9946543593380515 2 0 -1
686 1 0.059749334284990324 21.385951438771606 7.936194125463759 1 0 1
917 1 10.77690040496726 16.55989632623406 5.950381970728709 1 3 1
1339 1 12.042128653467863 17.5978560983693 7.500127734293101 0 -1 1
540 1 11.595570663144743 18.746999794606886 5.228267311655326 1 0 1
314 1 10.239399328747423 19.073347099738918 7.235846978158098 1 1 -1
1697 1 13.064723395154848 19.659650220552543 6.849873320697105 -2 -1 0
340 1 11.560915959738725 19.835028589865942 9.098040409408076 -1 1 1
1114 1 1.4385845649196172 20.848565427242896 5.812904554134853 3 0 -1
1807 1 2.372867118437277 23.027089347286427 4.797038772784868 2 -2 -1
625 1 3.968350561521202 21.25285571553745 6.188381527049667 0 2 0
1312 1 2.7501738393867714 21.78993992787536 8.238706993287124 -1 2 1
524 1 1.300173254658339 23.340190222607717 6.912207804998144 -1 -2 1
1867 1 3.8515282890117994 23.799120051898313 6.903537726149031 2 -3 -3
1159 1 2.0446126164015395 24.655507241051147 8.849737365340188 2 -1 -2
287 1 4.016273931722061 23.057577273195946 9.604213763648403 0 0 -2
750 1 7.6110988566600275 23.89020609774488 5.075848030919436 0 0 2
40 1 8.748570488947038 20.585285281326485 6.62262080659588 1 0 1
875 1 5.458674113991744 22.086676552633755 7.824005971259604 -1 -2 1
1051 1 6.53510005970814 21.892422756416003 5.8690398169713545 -1 0 -1
595 1 7.232593309670522 20.8542656508995 8.331203354534525 -2 2 1
1577 1 7.883973177271423 23.060540353372865 7.583612274570642 2 1 1
659 1 6.464328998405554 23.48272889723708 9.550635530572132 1 -1 2
106 1 9.301344644381638 24.185933464011065 9.09970017518967 1 0 -3
1493 1 10.428829245359859 27.677090242889307 11.975524286777741 -4 -1 1
1390 1 9.745616260145757 22.59242831712845 5.462716800374432 -3 -2 1
1744 1 9.938620974127105 21.430395938128378 8.51618444797963 0 0 -2
206 1 10.84436284931202 23.295164740148294 7.386492667360954 2 -2 1
961 1 12.733873422661773 21.762622245141003 8.001343619149731 1 0 3
1550 1 11.335348232884595 21.017987543236174 6.141572492895672 0 2 0
814 1 12.149763168335348 23.28710005401284 5.255915496423554 2 0 0
194 1 1.0671799222727336 28.23428118400866 7.588520981536578 -1 0 0
580 1 2.4603425386829567 27.53199776602606 5.393986173916124 1 -1 2
1915 1 1.928808165237677 25.371123451056356 6.057599539664988 -1 1 1
1914 1 0.31661585013759214 26.05066873956151 7.719980039707607 0 -1 2
222 1 3.001317653139997 26.757251183153357 8.055388455883532 1 -1 1
1725 1 -0.07312887838345941 22.274649074525385 5.423332052075735 -1 -1 -1
278 1 6.143005582572359 24.323050387909348 6.849817645045679 0 -1 1
1383 1 4.241124885525439 26.109197802135995 5.9184908070928985 1 0 0
1679 1 4.73479714382789 25.319393864673238 8.626089788350617 -1 0 0
1796 1 5.507686684819294 28.016087654016616 5.227275236466653 -1 -1 0
192 1 6.930557858455498 26.627074840040997 6.3310339559850375 2 0 1
772 1 5.872301271929403 27.218794845093235 8.279620598381298 0 1 -1
315 1 8.504051389569135 27.734830404570204 7.93414603560019 0 0 -2
1407 1 7.676169861080991 25.550313387166547 8.522609066368977 0 -1 1
1163 1 8.918113579899904 25.181641378562702 6.554198350491986 2 0 -2
1182 1 13.549508060676649 25.322352209701975 4.663556658129482 0 -1 2
1775 1 10.60884543548243 24.84139946506373 4.651390396123324 -1 1 3
1652 1 13.13377332532169 28.095320224634747 5.946583941316397 0 3 3
984 1 10.140658271287855 27.447080162211385 6.22974160828469 0 1 0
178 1 10.269203501430331 26.263662874761643 8.411361861665439 0 0 0
1118 1 13.12474769557688 26.585526579688093 8.190664426902188 -1 1 -1
2025 1 11.690197240956099 25.829760875301126 6.663371165272333 0 -1 -2
134 1 12.04965395373714 24.72115010554694 9.09328968260423 1 -1 -1
1671 1 0.9682622398305745 1.0370281943345008 10.812487921639223 -2 -2 -2
1496 1 3.6039805593319962 1.5196919082839035 10.788877865180998 2 1 1
745 1 1.709301918624398 3.1322638128474027 10.372299999124788 0 1 1
1982 1 2.208748684708088 1.832825742728233 12.675421614105343 -1 0 1
1033 1 0.3293683453919069 3.5823658429181786 12.103064323085883 0 2 -1
1838 1 3.4598424158154493 0.17707948452224576 13.637143539989058 -1 -1 1
209 1 2.4899972759877085 28.028728607002584 11.596925427378075 -1 -2 -2
282 1 4.68441047120011 3.5214860498583396 10.119448833682432 0 2 2
492 1 4.945466609367568 2.6850096238940657 12.655711289364444 0 1 -1
1989 1 7.215867573326438 1.0279768193448986 13.523938817582305 0 1 2
1399 1 6.3230012727463345 1.8732928282992198 10.76545641168795 2 3 1
1257 1 7.804447327628254 3.1803515487773604 12.495078729248972 -1 -2 1
302 1 8.341500539732078 0.6706179233149624 11.567651341915012 0 -1 0
1708 1 9.223861801587246 2.555795384856898 10.44830577502524 1 1 1
727 1 9.689586344626937 0.1577824398050678 9.518296106018207 0 1 1
577 1 12.678866532657091 1.0604509405125413 9.512880553967982 -1 0 0
1780 1 9.767378978517879 1.8948397174106897 13.141532566060123 0 2 0
1152 1 11.267074400571206 1.1575261515123358 11.57717970422616 1 3 0
1894 1 12.244991330530254 3.3298853300280653 10.59589195426948 -2 1 0
66 1 12.386838441285997 2.2321524555490777 13.31225213318168 -2 0 0
168 1 10.58239790215583 3.7054833964976535 12.205237032846671 -2 1 -2
511 1 13.931384557003216 1.4270027373816299 11.613218905792628 1 1 2
2035 1 2.7825560206732236 5.2956094992163365 9.637656345663194 -2 0 -1
1638 1 1.768229654786757 4.439575071904331 14.060668595336718 1 0 -2
826 1 3.254866662159981 4.101197671228247 11.87729417057134 0 0 3
12 1 1.3630826244794398 5.6415436439499125 11.451218669738708 0 0 0
420 1 2.8104004463148144 6.782382669524877 13.18347575470379 0 -2 0
526 1 4.184547841784958 6.594773816885853 11.2112073370943 2 1 0
103 1 2.1255761778544047 7.954477020263585 10.689037545889674 1 0 -1
1481 1 4.539419378110074 5.083474812957125 13.755364029092869 1 -2 0
1828 1 0.967949329648238 8.385796949097267 12.633536732014495 0 1 0
1192 1 6.148763479258805 25.935017662595932 10.597877760567414 -1 0 1
1919 1 5.748837920923599 5.741054884094296 9.53370791796327 4 1 -1
1224 1 7.398171257491126 3.8188422456899453 9.922550134174474 -1 0 -1
60 1 6.0164313509324145 4.748911823802323 11.82441351727763 1 1 0
1939 1 7.282704649862737 6.456729915636721 10.803045912235522 -1 -1 0
912 1 5.702375299971552 7.19042083998506 13.264876346702534 0 1 2
693 1 8.468937956377683 7.83355986226164 13.131066402950022 1 1 -1
1620 1 7.532151537889036 5.5703002414721245 13.50922770987057 1 1 1
1575 1 8.96310286556654 5.214297715906416 11.619706748689481 1 2 0
1039 1 13.599489856776158 4.107205859504322 12.434204923344222 1 1 0
1662 1 10.163299331513748 6.19613443280643 13.48170583568882 0 -1 0
1517 1 10.269827459922345 4.68636289486899 9.700978437516353 -1 1 1
843 1 9.932974473063863 7.070960625942358 11.179666441519576 -1 0 2
1535 1 11.59321562765803 5.615694725695602 11.62399209785882 0 0 -1
157 1 12.833162269007323 6.607239475407282 13.382058973581556 -2 1 1
1853 1 12.802153777022355 7.884708068150481 10.943535623194773 1 1 1
1314 1 -0.06712646397146926 2.049949240487472 2.861482464481568 2 1 0
1099 1 1.903582101552653 11.789881415015913 9.59278718303775 2 -2 0
1593 1 0.7587030849803961 9.714413496517475 10.029456020340893 0 1 2
1854 1 3.3605613555760234 9.867068189240724 10.099888033294624 2 2 1
552 1 4.042114566106713 8.714866569274884 12.364629934342158 -2 0 -1
1859 1 2.103582909819789 10.343242528320179 11.990652263504598 -1 -2 -3
174 1 3.4852220049967357 11.447738176244465 13.95567317548534 4 0 -1
812 1 14.090817359798661 7.3552291831074905 8.88444942984174 0 1 1
1328 1 4.712035204425924 10.92603502653494 12.1074302730533 0 0 -2
1540 1 5.718075742214676 8.35048921232457 10.621265369747174 1 0 3
1243 1 6.5362322119997005 10.71532810515644 9.994983221051765 2 0 -1
1239 1 8.019372167033458 8.835151234097195 10.387226943690145 1 2 1
660 1 6.779234827183635 9.468952723752775 12.77670106118979 2 -1 -1
833 1 7.602756312995525 11.659020563735167 11.883717339694632 2 0 0
13 1 6.290162642557665 11.796704220115139 13.898046727000496 0 1 -1
776 1 9.06478869731898 10.916263768592993 9.883282093073896 1 -1 -1
1408 1 7.42455685730832 27.294244102910163 12.128943716303414 1 -1 -1
1802 1 8.802255840143816 26.77423392457834 10.389266901530297 0 0 1
1735 1 9.163800956923701 9.900693400916232 12.496774528272796 0 2 -1
583 1 12.003538424068235 11.290926943675686 9.664202821260945 1 -2 -3
1536 1 11.184283804512985 8.220951374715467 12.861300352729831 -1 2 0
1378 1 8.373305222890219 23.599759666063214 13.92523984699235 0 2 0
433 1 10.564356917965148 9.299986232896261 10.733605703642489 0 1 0
495 1 12.384989679791609 10.206402743236396 11.971633431167634 4 -1 0
1021 1 13.466891153239523 11.202316395033531 13.698335689961027 0 -2 1
1361 1 10.497846839785623 11.74703103810963 11.48094312261219 -3 -2 0
1326 1 4.359341354529721 12.074302846113197 9.460426512875337 1 -3 0
1344 1 3.1404999497227992 12.594921130357871 11.362446975295217 0 2 1
39 1 1.6433269473197083 13.025930075936031 13.149616576207809 -2 1 -2
573 1 2.7185139207863225 14.971214869363276 12.449058883753613 2 0 2
2019 1 4.203170975347862 14.651962538714082 10.699895830925563 2 2 1
1398 1 1.2744638360310143 13.985362925288165 10.660270384333634 1 -1 2
44 1 2.152291312491339 15.891595474987044 10.306503109883945 0 -1 1
1637 1 4.7121257490844615 13.299661515952515 13.1497561653984 0 1 0
1724 1 6.879249536977949 15.01944775666092 10.5746904640757 0 0 2
908 1 5.786350026802303 12.799610624580614 10.965009828862682 -3 0 1
166 1 7.33500389878374 13.912000949595805 12.983783710135961 1 2 3
880 1 5.611374215980207 15.506708659515485 12.36108043303948 1 -1 -1
557 1 8.97204572838973 13.79266530693152 11.24829776626649 0 -3 2
565 1 8.196232679916363 15.982519801885934 12.35685129470465 1 -1 0
943 1 9.340828644518323 12.536756366478231 13.540334981969771 -1 -1 -1
1685 1 10.416319061310194 13.35353886993968 9.17809079038306 0 0 0