LAMMPS data file via write_data, version 29 Oct 2020, timestep = 300000

2048 atoms
1 atom types

-0.3016476270110111 28.65364762701114 xlo xhi
-0.3016476270110111 28.65364762701114 ylo yhi
-0.3016476270110111 28.65364762701114 zlo zhi

Masses

1 58.933

Atoms # atomic

433 1 1.8294530562305957 2.2169117329532457 2.428089192634786 0 1 0
192 1 1.5772044211447238 3.5897883144318574 0.8278519764040366 2 1 1
2001 1 3.6164835534968116 0.4726133359322495 3.6859887428034317 1 -2 2
1867 1 4.023432757978161 1.7680459240585478 1.4624940140386893 2 -2 -3
11 1 4.359184573921179 3.115876232334456 3.770261862115915 0 2 -1
807 1 1.9908040077656501 3.817769605216891 4.224649852708079 2 1 1
1191 1 2.2053751406153537 1.2127683111304848 0.28850223844124656 0 1 -1
1343 1 -0.11063419963102242 0.746758260099669 1.3861655174090382 2 3 2
27 1 5.808639325245319 1.4992608945539863 2.9119671301962398 1 1 1
1785 1 7.597183921792174 2.6224085296405617 1.7119892956094716 -1 -1 1
1845 1 8.13517388532008 1.8583565030681104 4.042948789926623 1 0 -1
598 1 6.131770438438099 0.6067527541198361 0.8465259598204222 2 0 2
1636 1 8.376000703473395 0.5444617697791512 0.835584684337358 1 1 1
350 1 5.573761600181565 3.8288158055191817 1.773931135283501 -2 0 0
1584 1 6.940808363658808 3.6747333725561875 4.087200361450002 0 0 0
1633 1 9.805660301103499 3.421251070812642 2.790265816834522 0 -1 2
782 1 11.808252777503203 1.3894497348961625 1.1366110025815648 2 -1 2
418 1 12.093999552441668 2.229309325068877 3.416093511611446 -2 -1 1
1386 1 13.761119256811055 -0.2613130746252685 0.9724622856033447 -1 1 0
1186 1 14.144991650909553 1.7831056779873156 -0.296666318385118 1 2 -1
203 1 10.041170511750362 1.0163756839861349 2.453895728014459 0 -1 -2
747 1 9.637837618322123 3.11992530911258 0.6980188740493526 -1 -1 1
1517 1 14.023816931768309 3.706799622466659 3.921055297890037 -1 1 1
1990 1 13.953061096788764 3.7837719598487283 0.8756034048432291 -2 0 0
1163 1 12.542867484456094 -0.06574831408475193 2.9067537496147717 2 1 -2
1872 1 3.3532623728400197 4.4484834067099195 2.319505431266134 2 0 1
429 1 3.895517171890458 6.762867793942626 1.303667799140154 0 -1 0
161 1 0.9023309301966136 5.526643515168884 1.4405779281338216 1 -1 0
1781 1 -0.09486879923050787 7.41856664244275 3.163845933337524 2 2 1
1534 1 2.259986142265177 6.257696920556521 3.095127644937118 0 2 1
1420 1 3.901361434370674 5.398532761413175 4.403834468519283 -2 0 2
914 1 4.239767634107269 7.658614633574335 3.673682364169197 2 -1 0
1653 1 -0.20897885522951232 4.1927379304889225 3.5491352922275006 1 3 -1
2046 1 8.221312828654312 5.060154812568107 2.2674455127397226 1 0 0
303 1 6.721326121111742 6.651926475181071 1.4090737443669241 -1 1 -1
940 1 8.475284735238912 7.6504278838038875 2.9839069945174375 -1 -1 0
330 1 9.275246620673801 5.442769038890775 4.133764141597076 0 2 -1
1232 1 6.531515591106087 7.507472494778316 4.446378669679634 -1 2 0
1521 1 8.64743975461869 7.673173601355711 0.7064574594372632 0 1 -1
1825 1 5.91935919327672 5.547570531812932 3.368159067627828 -2 0 -4
1484 1 7.355936943434506 4.440368851084005 0.22755891684176843 1 -1 1
1396 1 11.862593795665704 3.960924512212184 1.9916718976470458 -1 2 -2
835 1 9.358643268922494 5.504615767410053 0.1652493108903783 0 1 -1
1794 1 10.458111060893508 6.150861361373279 2.2613300085977124 0 1 0
463 1 11.973130222959146 7.579683066119853 0.7659459340724166 -1 -3 2
1760 1 13.03119695993189 5.9177235406451105 2.7017371412184277 0 1 2
158 1 11.32388830897938 6.918846143697327 4.04686967483522 1 2 1
1417 1 11.598743980608944 4.282930790502066 4.333572998108699 0 2 0
1066 1 11.634510981646867 5.392577071383173 0.027559036494789357 1 1 -1
1178 1 1.7661546341875831 8.107750311341436 1.5004569081291068 -1 2 -1
1446 1 2.3473700502147468 8.976889582227875 3.5690377081653657 1 -1 0
1143 1 0.6536980823153079 9.863009801839567 0.1967325116671379 1 2 0
464 1 3.151035667188804 10.136923800321254 1.4108979945453077 -1 1 1
1451 1 2.472591400890018 11.464388501516492 3.5118102576840147 0 0 0
2023 1 4.4913016973255875 10.244486104842911 3.5463746395578326 0 1 3
1936 1 1.1384980969537442 11.714983835844349 1.6164028818531564 0 0 2
861 1 0.36400648532219426 9.723866583050194 2.7964941092969253 -1 1 -1
993 1 5.093410913903531 8.809948759932908 1.5293180004991047 -1 1 2
1661 1 5.142595973696065 11.377164894986251 1.3093204196546777 1 1 -1
1410 1 6.996727862657733 9.688886830930171 0.45789208695778727 0 1 0
35 1 6.849995642916312 9.699392861311058 3.080922091828322 -2 -2 0
1294 1 8.912928798888103 10.39176541193671 1.4958639336759576 -2 -3 -1
86 1 7.623583492317626 12.064578268083624 0.4496355162901998 1 0 1
1414 1 8.973224359574852 11.13555318863536 4.507010597001697 0 2 -1
851 1 10.522569123871996 8.549999977340315 2.078180275057937 -1 3 0
1249 1 12.716117908476853 8.648152309072014 2.883933064748195 -3 2 -1
1387 1 12.486777760384701 9.768294439038058 0.8568131379989254 -1 1 0
39 1 11.091280292935979 10.576612877639716 3.0575078052005145 -2 1 -2
109 1 13.705015795764764 10.36964743630473 4.281579095455705 1 0 -1
1005 1 11.105983463768519 11.85860431171015 1.0632666573960818 -1 -1 1
1071 1 13.379315527923982 11.798435588050193 2.20163385236197 0 0 -2
587 1 3.2391664669805778 12.698004496833239 0.9545854010675279 1 -2 -1
1084 1 0.01315228029083959 15.493107077442874 1.9945367086844903 0 1 -2
7 1 2.000206388870351 13.896314497654728 2.7090354360235 1 -1 0
1102 1 1.7338039593856012 14.47791360723799 0.6025246557673133 -1 -2 0
929 1 4.087391738916563 15.052468570955726 1.8175237876914094 0 1 1
392 1 0.5045607065744967 14.576482336565077 4.294298581023299 -2 0 2
434 1 4.262399369781945 12.831422323034449 3.045889082056452 -2 -1 0
877 1 3.1024024051833483 15.348095288496987 4.059277622640541 -2 0 1
69 1 -0.12027026009032038 12.21747341601381 3.541552956141774 -2 0 2
1303 1 0.4537303680836191 16.12294856469215 -0.27026754180683454 0 -2 2
582 1 6.896975095858041 12.174827871133356 2.7972841677410707 -1 -1 0
1422 1 6.680995706887319 14.419412149681804 2.7218745358154637 -1 0 0
61 1 8.1040504284548 14.302801456968398 0.8859507051644535 -1 1 -1
1643 1 5.592471980835987 13.671206414099636 0.963128214581938 1 0 0
629 1 9.042344851705359 12.759976616425586 2.549235594651643 2 0 1
1865 1 8.399700891365615 15.850644201586771 2.799328793609993 -1 0 -1
213 1 6.160142834535389 15.91220370951449 1.06134887669818 1 -1 2
909 1 10.756954244044177 14.9490326213549 2.46011716069738 2 -1 0
104 1 11.938013298192546 12.895960510437433 3.531413343201966 0 1 1
1732 1 12.829272750967613 14.011789698754876 0.8525648435188489 1 0 1
149 1 13.784986181832382 14.134025982499157 3.361393569887674 -1 1 0
925 1 13.022006849098199 16.12895807728777 2.4109175565770045 2 0 0
1932 1 10.363439740354233 14.05537712123695 0.25111955329668134 1 3 0
172 1 4.3841614062665535 17.31645980605631 0.820485029080029 1 -1 1
454 1 2.1759526041408344 17.927413318838866 -0.1107526208499783 -1 -2 1
1495 1 0.10184125100928698 17.725230700716228 1.5799235468940216 0 -2 0
258 1 2.351550152578555 16.6124663472667 2.053414328060008 2 -1 1
1842 1 3.9057209348227584 18.807305608429722 3.05674813858862 1 0 1
135 1 1.8141151800429958 18.908197949956154 3.165126923557485 0 0 1
1549 1 3.128264678674757 20.036387439393852 1.2007743870909382 0 0 1
930 1 0.7874292882866516 20.05850060368518 1.2487723395262624 -2 1 1
1318 1 0.7095780860082777 16.659818188935493 3.839873128876093 -1 0 -1
1356 1 5.754237193452253 19.316442877514866 0.5526651061311678 1 0 0
90 1 6.33744823626773 17.972464039685146 2.462058432968583 0 1 -1
108 1 5.125833103441144 16.51388574111011 3.6626940851695475 -4 1 0
376 1 7.938052849585654 19.728462813395737 1.9428202461023334 -1 0 2
364 1 8.695831936944561 20.05593670227194 4.160973709554274 0 -1 0
344 1 8.75832311723795 17.65076081056693 4.024177270045483 0 0 1
346 1 8.347369548662254 17.078140452717744 0.8515324308282708 2 -1 2
1998 1 11.240597313135506 16.382426693443865 4.314404952562469 0 0 -2
686 1 10.505134449584043 18.26950521332065 -0.1622872729493567 1 0 1
979 1 10.331269792685518 19.735455024431825 1.9625130279517022 2 0 1
841 1 10.23603278697276 17.37407415850804 2.411085311727466 -3 0 2
190 1 12.289732569153236 18.589570688302132 1.829432596073107 -1 -2 0
1229 1 12.963464009602887 17.98675161091857 4.261034707662553 1 -2 -1
678 1 10.741978085532569 18.959354894754785 4.043904933104382 -1 -2 2
1684 1 11.662506535638126 16.26777362172745 0.5045306674841175 -1 -1 1
126 1 14.043053100878613 16.636519881276545 0.4687408077572829 0 1 2
205 1 2.127360486086881 22.421068066392056 -0.17207231150614752 1 -3 2
700 1 0.8615854574643289 21.140503955825295 4.143107995301664 -1 1 -1
687 1 2.4027505535161953 22.13464560734841 2.652419612646769 2 2 0
1435 1 0.4904544418560991 23.888398156411295 4.0692920305860625 1 1 -1
662 1 3.795859312438666 24.460475785011056 2.1479981701972255 1 -1 0
1203 1 4.454566580288404 22.33558787099159 1.1477927340242078 0 0 -1
99 1 1.3045893368661325 24.180014806549995 1.4061896666264855 1 -3 -1
155 1 2.782118229749138 23.94917507719126 4.383292645525494 -1 -1 1
1210 1 -0.16928553400299953 22.229603665162493 2.141951539421548 1 0 0
1068 1 -0.029836042483113834 23.71056782647189 -0.3011430443076435 1 0 -2
1242 1 5.157338820288853 20.66745967873445 2.821685124740716 -2 2 -2
471 1 6.696658754273256 21.53735974071567 0.8560124351551741 2 1 0
1614 1 4.759726731244305 22.858455894356542 3.457475746731091 0 1 2
388 1 6.190764362978113 23.814308133260493 1.6314269261633498 0 0 3
58 1 7.24378878064627 21.97123746182197 3.14405265581899 1 0 -1
263 1 8.56437620206553 23.681647292175736 0.924859206044085 0 -2 0
1958 1 8.787073727986657 24.301206713598418 3.205963604989453 -2 -1 -1
675 1 9.285588821326256 21.86868265897513 2.374016155444056 0 -2 0
810 1 9.277535860552218 21.244354204525468 -0.09530009422341448 0 0 -1
506 1 13.312746206147432 20.594065118869622 1.1671866855685125 1 2 0
724 1 11.358839411438417 20.50667357347215 -0.15031650614821873 1 0 1
298 1 12.156611183616771 21.231349742025497 2.9700877863111708 -1 0 -1
1130 1 11.057180797404031 23.20970645559021 3.6892970139520984 0 -1 -1
1169 1 12.481895103854896 22.892984362144055 1.166363518069174 -1 -1 0
1183 1 10.53681631642733 23.185383184389 0.08716315340460673 0 -1 -3
328 1 1.9370863237127054 28.52938884204956 2.2012668965785545 1 -2 1
1240 1 0.3374659303777092 26.717028186641052 1.5941449578541624 2 -1 0
396 1 -0.23553784143193277 25.989098761341854 4.216207165379065 5 2 1
1851 1 0.27630242069428446 28.149368991962497 3.632964992399977 1 0 1
1465 1 1.8125310122035487 25.809203857996497 3.4549661803784226 3 -1 0
130 1 2.673611818748087 26.458804714296516 1.1011058753393759 -2 0 -1
1504 1 4.2214337305850025 28.29729481716366 1.2573324029046091 0 0 1
2018 1 3.860112418588745 27.015229396056746 3.228904219479268 2 2 4
944 1 7.214503824381076 27.437905497174437 0.5785874678293497 1 -1 0
899 1 8.8249805688378 27.926115764553366 2.6226550731205416 -2 -1 3
939 1 7.039247826601213 26.218086530414528 2.437492403556352 0 2 1
768 1 6.081549556777038 28.062732166611383 3.0028014692663465 3 0 -1
1657 1 5.078331668657591 26.223983944071925 1.3486162183895736 1 -1 -1
492 1 5.462867987743507 25.40455394292282 3.8112438398982356 0 0 0
1566 1 13.15929177243234 24.65373959373682 3.2625919188097923 0 -1 0
1558 1 9.3986293758597 26.01022899762006 1.6400696800966428 0 0 -2
998 1 10.913183825901305 27.919383863602896 1.2926101005374435 1 0 0
40 1 10.755482256744909 25.846000731899036 3.6097903836723377 1 0 1
649 1 13.078638096319354 26.63828015984222 2.343094946673911 0 1 0
798 1 11.635180837213737 24.863421449168076 1.4973770558014212 0 0 2
1850 1 13.094059072428035 26.645881515131546 0.076559485824989 4 -1 -1
1403 1 10.494515882879057 28.09370379620353 4.030039618454066 -1 0 1
721 1 14.144846013050456 24.792233170982904 0.9453481538438411 -1 -2 -2
760 1 3.1625661260015385 2.367451159789039 5.849403670017018 -2 -3 1
181 1 1.4748044915050265 1.1068159677895382 4.793594128755681 4 0 2
770 1 2.2107558892899286 2.641510516999158 8.262456770451466 1 -1 -1
1656 1 0.7851183349652451 2.7234541305230033 6.320887086151558 1 0 0
272 1 3.0882399278457537 0.31151135877696545 6.530065968269681 0 1 -1
1327 1 1.4449301325264436 0.4076511037574585 8.131107468324737 1 0 2
1184 1 3.7433934764036216 0.6223015660402716 8.800245196557327 0 2 0
97 1 5.972220179857607 1.6745357704906338 5.090675990282125 -2 -1 1
308 1 4.8936439895848585 2.2893980306729222 7.34366771644725 0 1 -1
450 1 7.318985260075907 2.979000496339115 7.1240783290948695 -1 0 0
1321 1 8.567709033287931 0.9266876314737371 6.806634770363114 -1 -1 0
391 1 8.394555533755563 3.7719353426488187 9.134842670826998 0 -2 -3
1919 1 7.424731155542282 1.130903889832049 8.808173391276124 4 1 -1
1916 1 9.193658626139255 3.0466299437690885 5.589980517394654 -1 1 0
44 1 6.219314739637513 0.14472182995945715 7.218695848202265 0 0 1
607 1 13.98529504496741 1.9433544584127778 6.319545355190955 2 1 -1
863 1 10.315049962284853 1.3983526758803366 4.596048227483345 2 0 2
2025 1 13.336257939712382 3.081267642063862 8.58939947265811 0 0 -2
1814 1 12.326112328621232 0.5374473079122196 5.41916020385268 1 -2 1
1164 1 12.804521071656769 0.861342557241918 7.7329981448080165 -2 2 -1
573 1 9.582763306381553 1.915302430054616 8.630047344848066 2 0 2
806 1 11.667833006202496 2.7405589576218037 6.234646065454114 -2 -2 -1
1818 1 10.601393034713679 -0.19412100129155457 6.917546356335005 1 1 -1
1259 1 0.43041784878395406 4.399065552812947 8.157181512670496 0 0 1
1754 1 0.9226403086128541 5.5918796030154745 5.4154933138754355 0 2 -1
731 1 4.072638592459603 4.831681987509337 8.575747593890577 0 -1 -1
2035 1 2.628770580663348 4.297764520375095 6.591912945693974 -2 0 -1
1481 1 2.2831107685033403 6.420835472518238 7.433454246661798 1 -2 0
733 1 4.480268532381373 6.443867839773274 6.501464196888502 2 -3 1
77 1 2.5280517113352796 7.45239658872081 5.37288366723707 3 1 -2
1835 1 0.8757761243916009 7.002575107028949 9.302327963780096 -1 0 0
1959 1 6.450040510102667 4.902364870395962 7.925455516361312 -1 -1 2
2039 1 4.920505813329063 4.27915717935621 6.044116005157002 1 0 1
1847 1 8.783176062004479 5.069351427065654 7.1077135248311505 0 1 1
685 1 6.688726302940226 5.803826077113236 5.705408409587655 0 -2 1
1987 1 6.50989422013475 7.741184868901266 6.77199361446372 -1 1 -1
1624 1 5.604824772401893 6.82232662551094 8.910687414367745 1 0 -2
1347 1 8.07780779185194 6.575068747900188 8.867563588726732 2 2 1
1202 1 8.523161228834574 7.29239272441001 5.591563697666644 1 -3 3
1905 1 13.210849755680545 5.89175979282707 5.1464178115080195 -1 0 -1
922 1 11.152046926360676 3.862404375416121 8.275133455242925 0 -1 0
670 1 10.886568116564225 5.818990007609477 6.209289170195626 1 0 -1
468 1 12.998322427975744 5.337388312229533 7.482292858002382 0 0 -1
1399 1 10.244690420343284 6.1352480062351225 9.002523378789324 2 3 1
996 1 12.000863620269604 7.801058553417372 9.286503682682058 1 -1 0
2028 1 12.750750096971315 7.642843754772004 6.955284039934793 2 0 1
373 1 10.513213568919276 7.86385421896645 7.149400878001575 -2 1 -1
1136 1 4.000958676437514 8.470625682776067 7.75683440419661 2 0 1
98 1 1.3875317674423122 8.521298777254941 6.916908571672114 1 0 -1
627 1 1.3367293674852891 11.165969533544795 7.51116942052065 1 -2 -1
647 1 3.4622150907714406 10.593954647231838 7.8854496388357695 1 1 0
162 1 3.2092811159903385 10.136634467984054 5.7278678258526 0 0 -1
177 1 0.9263793867231427 10.259546367997874 4.95825892122412 2 1 0
1394 1 1.8632567021364457 9.317611868304477 9.067976319641081 0 1 0
710 1 5.068725432194707 8.912383547281022 5.437480196172433 0 0 -1
144 1 7.5196341934166435 9.507017867225088 5.378945072036047 1 2 1
208 1 5.401546656003047 10.77480390851684 6.759003868793943 0 0 1
1679 1 8.233345585407303 8.96840725340062 7.807087658453407 -1 1 0
411 1 6.154851535009322 11.969515438818208 8.724023980226633 1 1 1
115 1 7.889271332818485 11.431614529308137 6.713243949437706 2 2 0
1623 1 6.061861238786345 11.910002727057666 4.887837252404678 -2 1 1
166 1 6.138882839760921 9.418396279332867 8.54718508070848 1 2 3
1502 1 8.333625077016304 10.796451900751105 8.868277259319562 1 0 -2
374 1 13.888599591084185 9.029964331751062 8.751079283601563 -1 0 3
8 1 9.744627839118248 8.85289373019199 4.540852723581115 1 -1 -1
826 1 11.959452320550893 9.018601260131984 5.15413104986578 0 0 3
240 1 10.311870529972836 11.923374373067507 7.908778340075573 2 0 2
1982 1 12.284736612016477 10.193114903666022 7.215668304588121 -1 0 1
555 1 9.731743747446048 10.05096894220324 6.408251128070948 1 -1 -1
893 1 10.706623069911213 9.945746425534653 9.004233327585796 -1 1 0
1010 1 11.660750691279842 11.514825239467912 5.4272466337701175 0 -1 2
331 1 2.3898185940927723 13.085261915239464 4.972932143999442 1 0 0
114 1 -0.22189235968733906 13.910756838657703 9.24279600035146 2 3 -1
855 1 4.262505335500551 12.494226302823828 6.472840310405534 0 0 0
1770 1 1.523298329137054 15.66175355398781 6.094108653989689 0 1 2
1477 1 1.9022364568887764 13.768214304475679 7.515588291538384 -1 1 -1
280 1 3.8091228435478826 15.122701412825798 6.432882430463865 1 -2 -2
811 1 3.852418361419609 13.195619676668306 9.235275764890618 0 -2 2
1690 1 0.3611031914953299 12.273572400479532 5.746831600614046 1 -1 0
399 1 1.3859214180206798 15.981316029968855 8.68973969229169 0 1 0
1091 1 4.121523664729316 15.41545947017094 8.69943846302006 3 -1 0
466 1 7.265097612696257 16.158647440076223 4.938544487207153 1 2 0
377 1 5.473982660313432 14.34661421485065 4.676449523919714 -2 -1 0
836 1 6.065137782774097 13.588697565653302 6.756386332951689 0 0 3
1830 1 7.688236487052836 13.49093120996072 4.665934936220879 -1 -1 1
1244 1 6.384782026350521 14.401649547961481 8.997873995344415 0 0 -2
1734 1 6.093900635546844 15.933981818832017 7.343612080251429 -1 2 1
15 1 8.24602766462965 13.418781591532012 8.425334775195854 1 0 -2
1051 1 8.01470247588956 14.709398794218616 6.5653578491217575 -1 0 -1
657 1 8.311733082153518 16.075025263767962 8.342392631122475 1 -2 0
129 1 9.417032848251498 15.008420340527904 4.5284425902800525 2 -2 0
1231 1 11.471808262475532 14.28110163368598 5.332922041969875 -1 0 1
853 1 9.419532895761591 12.812994821405384 5.734309318897585 1 -2 0
554 1 12.440670756104781 12.870957126109673 7.292475391671341 -1 -1 -1
1413 1 12.932738370473366 15.133228659245956 7.2131131691743375 1 0 -1
774 1 10.445331598890375 14.32817817853701 7.666625894124079 -1 -1 0
753 1 13.826458887846735 12.675854759651955 5.107229603099708 0 -2 -1
1891 1 13.468358973357423 15.776868012786256 4.992327124441659 -3 -2 -1
264 1 0.12248991223575395 19.041165840417847 5.20640580740538 -1 -2 -1
1737 1 2.1037115522774785 19.775854654435715 5.971961457444427 -1 -1 2
1097 1 1.0289626152961673 17.994294888631842 7.218295044564912 -1 -2 1
1069 1 2.779226844241941 18.994096341093616 8.406167847625252 0 2 -2
800 1 2.50658629021273 17.60775050394796 5.018665459851793 2 1 0
840 1 4.161223799675108 19.476949348249374 5.301260935569132 1 -1 -3
857 1 3.294693541466225 17.10362053450111 7.283690158431365 2 -1 0
1158 1 4.945207104447527 17.07934845212789 5.800402803246989 -1 0 2
535 1 6.4498085395177 18.591933326278685 4.778248000362845 2 -2 -1
305 1 7.366013176665355 18.711701714350035 8.747318961653747 1 -1 2
1367 1 5.36209179183452 18.70667614650383 7.3018471640409235 0 0 1
1800 1 7.59398444208949 17.69052048377029 6.711795697847063 -2 -1 2
1726 1 7.4562298735211145 20.065899555500312 6.8131418160634745 1 0 3
38 1 4.727078258007567 17.771481104562962 9.145075738912077 0 -1 2
514 1 12.19320183395968 17.340007446865645 6.376940875366276 -3 -1 -1
1200 1 9.725963276315449 16.7536390515423 6.245538283055808 0 3 2
1174 1 12.583637995513245 19.12482863887706 7.996187336913897 0 2 0
357 1 10.170636095895167 18.641640263452913 8.491624853534555 0 0 -2
628 1 12.24007840545515 19.697775424949935 5.731296463432614 1 0 0
335 1 9.96060339256289 19.008017869598202 6.321923471509904 0 -1 1
1016 1 13.92392496152966 16.691150022664274 9.096003399404719 0 1 2
2034 1 10.847835080889352 16.25819558957363 8.357157274859661 0 0 2
595 1 3.4555552653296195 21.546630197051982 5.091284326740983 -2 2 1
1189 1 2.627067520645744 21.884419650708015 7.302649280377711 0 0 0
1733 1 1.0986589091822105 22.88246740917401 6.134921314946991 1 0 -1
224 1 3.345818611314746 24.12809836157007 7.121502194557615 1 1 -1
367 1 0.13128161885814454 21.011835373999578 7.2990649954840645 1 1 0
734 1 0.7499431517329314 23.95193975670871 8.229524549074464 1 0 2
1447 1 2.735602210828701 23.081717421497892 9.21904952947727 0 -2 -2
1943 1 4.173127232148805 20.845746740212387 9.194053733569005 2 -1 2
1209 1 1.5989907409740682 20.81695330396033 9.234883998305554 0 0 -2
445 1 6.812124863377257 23.84289996979565 4.937808080042036 1 -1 1
1041 1 5.936623475254373 20.884233805844605 4.853696139586104 0 -2 1
31 1 4.93474612297964 20.95633186254707 7.0377205856172615 1 -2 -2
1096 1 6.90113223279683 22.26278944492371 6.7144863739132505 1 1 0
323 1 4.848105459711676 23.1244437781026 5.780508134459015 -1 -2 -1
66 1 5.072475317838391 23.082814048398994 8.495112133567588 -2 -1 0
1854 1 6.68301199038146 21.01363161916799 9.133388664028036 2 2 1
1857 1 8.72339275965777 22.287521145362522 4.907897343217245 0 -3 1
1795 1 9.10828070910612 22.258965124467203 7.3192005553199415 -1 0 1
1031 1 7.924216983296997 23.152511084309694 8.918004318273994 0 0 -1
931 1 8.883343484321067 20.654685887697568 9.000170468266383 0 -1 1
198 1 10.649791595145603 21.216183794596063 5.031744141935647 1 -1 -1
1583 1 14.025516830824984 23.62931253748348 7.310291499356343 0 1 1
1319 1 10.94441703425309 20.956950109020568 7.7310596706414945 -1 3 -2
1263 1 13.190186724064207 22.439435369727924 4.85371093650757 0 0 1
953 1 11.683409422779667 22.956961842562254 6.511659329344487 0 1 0
871 1 9.925527444276677 24.25803369345114 5.576468333265455 -1 0 0
579 1 12.692857118681045 22.455305501723803 8.774422712448628 -1 2 0
797 1 10.106919056080441 24.145215334659706 8.16518184153605 1 -2 2
93 1 13.239025312750936 21.181801709553305 6.981479272533454 1 2 -1
1052 1 2.4190595884784 27.35392233897225 5.040465178801499 0 -1 0
1708 1 3.8773122329248633 25.383796268781882 8.811567565965918 1 0 1
378 1 1.4578225781600926 25.55052176878407 6.191799692500249 3 -2 1
1892 1 0.6386643442585851 28.264118714489587 6.256167583274731 -1 -2 1
1626 1 2.745588014787585 27.447773032717503 7.508318448095955 0 -1 0
1820 1 4.079664335876605 25.99851829801486 5.649436573338533 1 -2 1
755 1 0.5062315605062564 26.283364414788288 8.501675587719182 -2 0 1
1197 1 7.924920675199843 24.58402582476603 6.622870979594146 0 3 0
1853 1 8.458633031026622 25.946215233143572 4.726961585199469 1 0 1
1843 1 8.843819501028483 28.422013875890464 9.127962727244897 0 0 1
1730 1 8.125942705426976 28.58518613739521 5.031407862474918 -2 -1 1
163 1 5.0116717026676865 27.134107400365156 7.617572025365579 0 -1 -1
518 1 5.167488749585109 28.207572242042517 5.20567933692002 1 -2 1
230 1 6.370100852130395 26.42118464540741 5.877683931568714 -1 1 4
504 1 6.321978272642674 25.02252759292514 7.992757768832655 1 1 2
1450 1 8.347313824124724 27.17053785758316 7.1109176756583885 0 1 -1
1017 1 6.758831675133898 27.73919805483123 9.015841126098193 0 1 0
299 1 11.696522155448948 28.520170751309312 9.270069479482014 0 -2 0
691 1 10.528470197053657 26.69676979913472 8.54109203800057 0 0 1
2032 1 12.419203892799509 24.991389721604715 5.589422380526623 2 1 2
1201 1 12.593762914376347 27.15352786967759 4.571063198736786 -1 1 0
482 1 12.787918543165862 27.238530818007355 7.036636249985768 0 -1 1
1728 1 12.257178974605816 24.993819435752503 7.918150785673275 1 1 1
1678 1 10.5404887846467 26.56276121563127 6.050561332819359 -1 -1 0
173 1 -0.09006931689926181 0.525384521063377 9.730800226107464 0 -1 -1
1003 1 0.1053208392062443 2.260056814836886 12.57203367408316 -2 3 1
603 1 4.184102965772479 -0.09745508447053555 13.746483328199016 2 1 1
1013 1 2.575546464318075 1.0083652026613614 10.821777714639412 -1 -1 0
1113 1 4.49358342633987 1.400084740922505 12.099552409152423 1 -1 -1
1276 1 2.7096063626538913 3.0867052129760597 12.268421045255016 -2 1 -1
745 1 0.9166010421554309 2.5995201901325706 10.093454184466973 0 1 1
1898 1 1.984188109724271 0.5658948447109206 13.034899808156094 0 1 -1
638 1 3.925584644467233 2.7422575847283164 10.18251514166929 1 0 1
1574 1 3.8614041381051125 2.8847367439984164 14.117243867294594 1 0 -3
1701 1 8.566058731931397 1.4134147840735376 13.409809453985314 -2 0 0
1033 1 6.107417923899327 3.0010987151023154 9.622702128668307 0 2 -1
1688 1 6.294292492461924 3.3092141150894463 12.017428228449639 0 2 2
1962 1 8.047922225119928 2.1408429091200247 11.149018326211424 2 -1 0
1328 1 6.358209394898236 0.8187294295206675 12.799463263436124 0 0 -2
1666 1 5.836069170696062 0.5651957558402192 10.418017891569292 -3 3 2
333 1 8.268923840891132 3.8302009644566706 13.267429871435743 0 0 1
1852 1 10.338610574066625 -0.20354109538053322 12.963975669166869 0 0 0
577 1 13.556367703598543 1.057507132319096 10.344758614184354 -1 0 0
881 1 9.984148770594217 0.6815474409061016 10.904888946604462 -3 0 -1
413 1 11.63373859074195 2.540248331822829 10.17308899954481 -1 0 1
342 1 10.172279125685147 2.6675382224640334 12.262679187349034 1 2 -1
178 1 11.966968625132337 1.274492503118772 12.511013042323961 0 1 0
1503 1 14.069784160688883 2.14807090821889 12.377557623772649 2 -1 0
2026 1 0.6241455530938608 4.93369169706893 13.823647037340574 0 2 1
580 1 2.0323731973664163 4.7245474592975665 9.898167203627558 1 0 2
1070 1 3.2071502706166926 6.934388908397285 9.966294664336717 1 -1 1
1749 1 -0.15911159293928623 6.622201823792381 12.14951978697934 1 1 2
983 1 2.299344774033266 5.364500446337745 12.179883390543857 0 -1 1
312 1 4.4618001803390115 4.5817027381182225 12.92112479701219 -1 0 1
732 1 -0.12491840814447633 4.4376623091488385 11.346859989478933 0 1 -1
363 1 2.5936337210648017 7.918723935289428 12.408715428700937 0 -1 4
1049 1 1.0437131761782852 7.206406814711433 14.063621203577725 2 3 -2
287 1 4.65981722748856 7.171401003064339 12.070304860406418 0 1 -2
1849 1 7.970874061425276 5.169109177423972 11.121499057324108 0 -1 1
1228 1 6.4596096197267965 5.654557900638422 13.019211556337444 0 0 0
1153 1 5.439164859039117 4.9104432758343455 10.74450714823554 1 1 -1
653 1 6.73384697913312 7.953638413898222 11.033621237824203 -1 1 0
847 1 8.807721615299508 6.9971460070656075 11.907071733773872 -1 -1 0
832 1 8.878042283077567 6.527202352779788 13.861035972264602 2 0 0
1883 1 12.676837678409727 4.009901301588346 12.0303641037996 -1 0 0
1652 1 10.106195415531895 4.289883735037224 10.722865367622722 0 3 3
438 1 10.8109048441983 7.5018819577516584 13.553687301233785 1 -1 0
804 1 12.374681692921095 5.305716725528313 9.769456111245061 -1 -1 -1
515 1 10.53656143818352 4.898911261667462 12.947885206847104 1 1 1
1724 1 11.307029138140734 6.748536886507299 11.396576752357767 0 0 2
1537 1 13.990461148159836 7.896310064196001 11.042036336111059 1 1 0
369 1 13.286915554481606 6.6552258210481385 12.747047489623528 1 2 2
1157 1 0.08129451078859617 8.789798299307447 11.188742647656962 1 1 -4
642 1 4.217675545267744 11.120167917844158 9.943555869844982 0 -1 2
789 1 0.23875865934290808 11.192588626442445 11.736152578815458 2 -1 0
602 1 4.33045693285422 8.942772209381554 10.466666813620812 0 0 1
912 1 0.5612777999698553 9.501193174794285 13.531014332997728 0 1 2
1874 1 2.32615655808333 9.939485422007047 11.357353183528168 -1 1 0
2030 1 4.497112135777107 9.673885442331787 12.485078312785939 1 0 0
1304 1 1.9243745813999187 11.388746139034707 13.22216873684916 -1 -1 1
764 1 6.535555917904926 8.26555395538888 13.231503836330699 2 1 1
1004 1 5.208958527954894 11.71194687781055 12.836137757305334 2 1 1
1496 1 7.402585258098942 10.477689892217638 13.46336097064111 2 1 1
79 1 6.21028423095863 10.339553477680786 10.702266416604102 2 0 -1
415 1 8.731097417478855 9.554558649979313 11.5799537284121 2 -2 -1
1351 1 9.022254823674281 8.722111709986086 13.92161062131427 0 3 0
459 1 9.614125561367326 11.019577741337304 13.11323747850346 0 -2 1
1514 1 13.36961522814026 9.172524452410695 12.86026446372609 0 1 0
237 1 12.698560383046626 10.29421391396661 10.369767255976946 -2 1 4
1487 1 11.265777351290234 9.109771779060686 11.98344255040092 0 -1 0
1901 1 9.560185783316735 8.183410745680716 9.859452033309168 2 2 2
1673 1 10.458716435442183 11.314645295398135 10.957141291808044 1 -1 -1
400 1 11.817751109195205 11.6028717783698 12.760445761162964 0 -2 1
1046 1 -0.1397863915598343 15.865747181893575 10.59097358182113 0 1 0
1862 1 2.1750212422292017 14.744317912223575 10.444161828087768 0 0 1
1076 1 1.4156485018679743 12.113739753392215 9.923931385949126 2 -1 0
658 1 0.6674069501178472 16.056181981662256 12.76104542457971 1 1 0
34 1 0.2765657467110748 13.596369636365091 11.669642936942408 0 0 0
1142 1 3.109023095228238 12.844079021429325 11.714150045017757 0 0 -1
1491 1 2.148562788549638 14.455041323014564 13.056240348629562 2 1 0
1630 1 4.09762436882058 14.92167054301264 11.349090136977972 2 3 1
1789 1 4.672879923610375 14.067179746208462 13.30032610854294 2 1 0
523 1 7.865312540104826 12.343179583949757 10.516317977599796 0 0 -1
1324 1 5.733218691381419 12.880382689260898 10.804972673381705 0 0 -1
1954 1 6.534012374914919 14.920799041671385 11.695391857131945 -1 1 2
1687 1 7.496178876091398 13.028669833353705 12.838206137323793 1 -1 2
1301 1 8.23635841328817 14.98253582111029 13.67309963318779 1 -2 0
372 1 8.275220792213943 14.716452106131548 10.331849159004564 -1 0 2
769 1 13.467337998452297 12.61991699263308 11.190548813453551 -1 2 1
681 1 11.92803256728411 14.136933089106336 12.145333436798667 0 0 -1
677 1 11.872880770055687 12.520038319965726 9.357273497997173 0 0 1
1415 1 14.15614540235055 15.37845037022667 11.149995850750704 0 1 -2
717 1 10.264663797380555 13.765360050150292 10.062618789311463 0 0 0
1466 1 12.44409197511442 14.827452820281936 9.81819866043136 0 2 2
243 1 10.299533327701335 15.651653206128199 11.454910773110905 -2 -2 0
1233 1 9.719020284535775 13.40271737194231 12.310797913115444 -1 0 2