LAMMPS data file via write_data, version 29 Oct 2020, timestep = 300000

2048 atoms
1 atom types

-0.26110819203135804 28.613108192030943 xlo xhi
-0.26110819203135804 28.613108192030943 ylo yhi
-0.26110819203135804 28.613108192030943 zlo zhi

Masses

1 58.933

Atoms # atomic

1249 1 1.2348879240711808 1.215394781432922 3.394108807603484 -3 2 -1
509 1 1.3497577162077632 1.1193292401078194 0.9966028838392167 0 -1 0
418 1 1.1697563873297834 3.264189765015724 2.1165902837911683 -1 -1 1
1796 1 3.395918609867505 0.5117871837444798 3.999926486752047 -1 0 0
1648 1 3.39502618988513 1.9567560945091866 2.210044754916017 2 2 -1
535 1 0.14117155294542605 3.825968543572844 8.657134227756039 2 -2 -1
1331 1 3.9823791498796943 0.22836538050514776 -0.07770871867929133 1 -1 -2
438 1 6.20625077400735 0.5195972505863083 3.3365953739179837 1 0 0
819 1 6.106250134851378 1.2597905493298889 0.8831466453974441 1 -1 0
727 1 7.867433494066578 1.9526681999780027 2.3771816323082944 0 1 1
1567 1 5.546424159565818 3.6331692004683145 2.030704524963655 2 -1 2
423 1 7.877745576715432 2.3521321400293926 0.15680313266524692 0 1 1
1498 1 11.389579974344095 19.789424019736398 13.921743856672046 1 -1 -1
1131 1 -0.2224593225519378 6.386389577667396 12.202543680681988 1 -2 -2
377 1 9.901260179455775 0.5633327129290895 2.573028221293954 -2 -1 0
798 1 13.079416457746548 3.252591170662746 0.9737178015416181 0 1 2
984 1 11.903893957257244 -0.041963472094489196 0.9124566549231345 0 2 0
1350 1 11.901799932044613 1.5480383412130796 2.9934978082169996 -1 1 -1
1690 1 9.663883788586608 2.534054920920824 4.589086810159646 1 -1 0
455 1 10.0824779471481 2.9116190499788 1.7620935441831516 -1 1 1
884 1 13.47958496479783 3.0428586011207717 3.565094693488195 -1 0 -1
550 1 0.6441493104139283 8.072261596861841 0.6436448521324355 -1 1 -1
186 1 13.416302369543963 -0.0650512659528566 3.109608271330944 1 -1 0
1686 1 9.972092501393561 0.982414792884136 0.22705899323079382 0 0 2
115 1 2.3351685741158628 3.3299109233606936 4.2803043474056865 2 2 0
293 1 1.2111327134867034 19.307721288427544 12.385579523788744 4 3 -1
1314 1 2.297182933211486 5.8456557389057 3.510702741709258 2 1 0
1596 1 0.2300398685473305 4.597583728575958 0.35605078696494574 0 0 2
219 1 2.094436368148615 6.1724165312504935 1.0585159674292168 -1 3 1
769 1 1.8879288133360803 8.125054018124334 2.8096225236194816 -1 2 1
702 1 3.8765068756593646 6.8882017781472475 2.2830656401825293 1 -1 0
86 1 3.604534430342276 7.433435227342749 4.699537039332719 1 0 1
925 1 3.1446742028569377 4.363248632025253 1.8688954276713603 2 0 0
31 1 -0.21416045888199786 12.353436168599062 2.4132427596156263 1 -2 -2
1208 1 4.40767596165873 4.852205708395706 4.0985636548139155 -1 -1 1
751 1 6.449356439338716 4.486298900467634 0.048974960874760776 1 2 1
127 1 6.05506680550942 6.386726994609102 1.8108586212426707 1 -2 0
898 1 5.7658014732645215 7.452845451085585 -0.12466407136308 0 1 3
1202 1 8.167037275696403 6.8448250611269925 2.802870825401749 1 -3 3
284 1 8.1466153346156 4.263323197047859 1.8183385102688865 1 0 -2
448 1 8.047203984957939 6.269626860168063 0.6307018710253361 0 -1 -1
351 1 6.07808405774411 7.38252609300135 4.025836436510278 3 -1 3
382 1 1.9065650962080758 27.78619807595678 0.08141439767036485 2 -2 1
1592 1 12.270572979697961 7.011752653102269 2.4831632879196377 0 1 1
1709 1 11.622556946785979 4.2751659736808545 2.6874982854653475 -1 0 -2
1173 1 12.401083047379462 5.608270677467785 0.6297254665783307 2 1 0
527 1 14.169010836029816 15.624420501185682 3.1177433272470774 -2 0 2
298 1 10.01841494331372 5.350381989044667 1.0789839924721538 -1 1 -1
1486 1 10.66383684352796 6.344611073093286 3.978303609089795 -2 4 -1
1611 1 0.49932551147402426 10.118979505558299 -0.1255297253681556 -2 0 2
1333 1 0.5374075817798177 10.054860514395536 2.5404236332128503 0 0 0
1037 1 1.953005404912092 12.16206651049485 0.8805081519331008 1 1 -1
90 1 3.0210180163810834 9.43177155233092 1.1502790506456555 0 1 -1
1233 1 3.4206359315389347 9.293106910951543 3.5264956109295325 -1 0 2
37 1 4.740995228703227 11.35282876137158 3.0244179728834526 1 1 1
687 1 1.2109977531963145 7.692726729626472 5.363443244277514 2 2 0
95 1 4.363490867706857 11.296556916435748 0.9358629721069989 0 3 0
1612 1 5.283099358254098 8.808817607383437 2.255227495055706 0 1 2
118 1 7.520179587735488 8.8224619411856 0.825944928582143 1 -2 0
792 1 7.64008469191936 9.145866201825612 3.2360006735501528 -1 1 0
542 1 6.669789881097214 10.768046704132816 1.8516858958170919 1 -2 2
1068 1 8.902712615212158 10.516582176176152 1.7935234242392277 1 0 -2
1785 1 5.721964392558216 9.823332002488987 4.6062299484041604 -1 -1 1
640 1 -0.08171584471915927 23.908223106460397 -0.01014211892533834 3 0 -1
462 1 9.898103981595602 7.982175217876669 1.3230843138023831 -1 -2 1
793 1 11.975986089499296 8.05992449620896 0.18136458940886185 0 0 2
1916 1 9.812247997110973 10.437948770705372 4.7025433227404125 -1 1 0
657 1 11.264601071149514 10.362301704685143 1.3844650924788016 1 -2 0
728 1 13.602110012763355 11.506679669375046 2.3729724643970687 0 -1 0
695 1 13.419591274066539 9.227468803364108 1.7510835964553841 -1 0 3
867 1 10.723604173630205 8.779463253408471 3.379466834140613 0 -1 1
683 1 11.931755014760176 10.842136286343381 3.89014482327123 -1 0 -1
346 1 1.5190726056746213 14.470594717614848 0.1784945010189125 2 -1 2
537 1 3.4919133917631595 13.691360437231536 1.6911049015085429 1 -1 -2
20 1 2.202262652646087 11.779451194204771 3.3064025766661302 3 1 1
387 1 3.753778615536068 13.4579062551891 4.129281080548327 0 -1 2
1589 1 2.9737615206209367 15.82088365150862 1.1920841009602694 -1 2 0
303 1 1.3391564804656735 14.327472482150451 3.031488110232936 -1 1 -1
1024 1 10.339091757851714 26.17598105658839 12.98944995955299 -1 0 2
1548 1 3.7565809782850232 16.54303492377692 13.927117963967895 -1 -1 1
800 1 5.6569496760443645 15.534798119479174 2.844538542448228 2 1 0
1429 1 8.201248120780635 12.967180578199605 1.8231807817640315 2 1 2
1901 1 6.062757019771268 13.107076955217131 2.67319013427688 2 2 3
834 1 7.7716533789233715 11.617041236844909 3.5864842006940942 1 0 3
917 1 7.826769498918223 14.157251349719054 4.1514563591882 1 3 1
1357 1 8.677795577317164 15.544880193050682 2.274699820436882 -1 1 -1
1806 1 5.540070741568436 14.829805303067523 5.119358943652909 -1 1 -1
1069 1 5.182059728090924 14.325706160527474 0.5440527152916459 0 2 -2
730 1 10.34231566527407 14.329749685796278 3.3517890873253258 1 1 -1
1149 1 11.591572390179792 15.01498257338213 1.5459304041810316 0 -1 2
1375 1 12.33784332718294 13.324394481267277 3.43213850071625 1 1 2
1661 1 10.317058285194742 12.298297429916257 2.3546904108265343 1 1 -1
741 1 13.44756425603189 13.827242113753993 1.1454812809283175 0 -2 2
1657 1 12.055316281651757 15.818237829203543 4.166602275651384 1 -1 -1
864 1 10.634529891732779 25.461072579149516 0.00458910917982619 -1 0 1
1185 1 11.558070003362191 12.630276978089388 0.6348136271217233 -1 1 0
180 1 9.654815262923135 15.78694960552211 5.021099976159399 -2 -2 0
1225 1 3.388310015799762 15.904251062933984 3.370457368541182 0 -1 -2
1040 1 2.8885015327682373 18.16845003618913 1.7407079542775943 -1 0 2
1446 1 -0.16997583850657705 15.505823127161776 6.408313963345214 1 -1 0
678 1 0.8750307586857959 16.435299479436758 1.7445397019705489 -1 -2 2
1869 1 3.4529681940465458 20.10118767294107 0.6274817997652228 1 0 -1
1545 1 5.162920745001038 16.69095828145524 0.6750080259611702 2 -2 2
1725 1 1.2665231684193867 20.460625664353653 1.834644330124085 -1 -1 -1
1419 1 4.291836113736898 20.031808716732222 3.245469958921132 0 -2 0
136 1 1.6288653420932369 15.592158337467371 5.002106611750237 2 1 2
1209 1 5.262333474306222 19.007044323128657 1.6110141050756221 0 0 -2
1001 1 5.359793449863949 18.00315584862334 3.639571047532617 -3 0 0
1766 1 7.580266149795226 16.800473758797327 4.080204914913681 1 2 1
736 1 6.34865383158321 19.353355952905904 5.188253638681608 0 -1 -1
372 1 7.405591474283036 19.391192510566086 2.7567933970098926 -1 0 2
1129 1 9.149259824182144 18.436055114882315 1.6089784005957328 -1 0 -2
240 1 8.711196167261042 18.703937226143548 4.544902610267884 2 0 2
1359 1 7.159501769546318 17.227461269172995 1.4127893304183619 0 -2 0
877 1 10.331126670780147 17.402509948897777 3.216965808614718 -3 0 1
1434 1 12.983035769766275 17.339584159571668 2.1613909706411416 0 -2 -1
664 1 11.365151904074224 18.970754118197227 1.1821513756125097 1 -2 0
1286 1 12.572158315486679 19.752507761174815 3.0989016593598864 -3 -1 0
675 1 14.147644859055932 17.56004591413752 9.839492893886865 0 -2 0
1197 1 10.25408091294095 16.607725438046604 0.6738969807315893 0 3 0
1363 1 1.4596788106344543 22.14088269543778 0.13639117120060623 2 0 1
1298 1 1.876595409747909 23.522329623300585 2.3409361325611475 -1 0 1
1114 1 0.43398873884567146 21.742350554827844 4.122212353409493 3 0 -1
1213 1 4.32516363434632 22.68129102651325 3.940658842249598 -1 1 2
355 1 3.7902337011511724 23.915547092409263 0.652786958267844 -1 0 -1
1019 1 3.1409620485848975 21.79467473889483 2.0050190765701625 -2 1 3
1304 1 -0.06295445905884428 26.455039646141856 -0.01675273647305911 -1 -1 1
1128 1 8.425623945365354 20.960322766132194 1.6675307409980618 -1 -1 -1
1092 1 5.708170452479096 23.622053407619017 2.2090239717864777 -2 -2 0
1441 1 6.241549949073054 21.30782043967253 3.614504213000565 1 1 0
79 1 8.497743597289672 21.312759737888385 4.056900675347814 2 0 -1
516 1 8.026203024798235 23.90708870547865 3.5864741358361654 0 -3 0
399 1 5.3967404070381635 21.634328294573418 1.1396547511086423 0 1 0
1400 1 10.247050747317651 20.02065726986369 3.214042850604744 -1 0 1
1845 1 9.509090157684097 23.02711733790585 0.12819790392505637 1 -1 -1
1428 1 10.723700121494192 21.583940541937906 1.411271392501638 -2 -3 0
1588 1 12.938735439980938 22.573192018424958 2.758491907709883 0 0 1
152 1 13.0672627703381 22.538572266360656 0.31990952512533866 -1 -1 0
1938 1 10.058732274050422 22.802741602446986 3.557151839584555 1 -1 1
1440 1 11.095488349066459 24.15777254291927 1.9260763862826975 1 -1 1
1652 1 12.013162546612397 24.01595655966545 4.688157197426221 0 3 3
56 1 2.13020654234873 25.832903491294825 1.12156754586362 -2 0 0
165 1 1.531332945522065 27.941607130247156 4.28124067454077 0 0 0
580 1 2.6510336246536235 27.77944035538883 2.1614599495478264 1 -1 2
1825 1 1.4793818725712173 25.97694407155755 3.4214079785256484 -2 -1 -4
1462 1 3.747372506776733 25.171615687100918 2.9322707432247284 1 -1 0
861 1 0.3739231824784851 27.575298845604397 2.1100588901312984 -1 0 -1
805 1 13.1470617491724 9.644780502067263 6.334454506204405 -4 -1 0
985 1 7.808976703812245 28.55695091170485 1.9426336618606195 1 1 1
291 1 4.516044728113958 27.04567783026208 4.0417882476889915 -1 -1 0
1123 1 4.97116772945015 28.130883770218947 1.9001084213389716 0 -1 -1
1454 1 6.90755978102784 26.24102359760501 3.066791015982815 -1 2 -2
270 1 7.829197658801814 23.20058869395329 1.580687928842404 -1 -1 0
1184 1 7.405752223356308 25.205633404926807 5.4253849884447325 0 1 0
634 1 9.179254498055583 27.25748707398753 3.3488702286651275 1 -1 0
1557 1 5.090400650237445 26.01331921014334 1.2008130643843569 0 1 -1
902 1 6.6862833124106285 26.99223079319195 0.1156801523149722 0 -2 -1
892 1 -0.17279357289709166 2.586321550127981 -0.010880011621033192 -1 -1 0
468 1 11.453562192061334 28.022122271490925 3.6237755299503887 0 -1 -1
783 1 9.003842656241831 25.31697626114242 1.9807133843589693 2 -3 1
1182 1 13.122993507739059 27.07112967915202 0.012184868394965742 0 -1 2
1347 1 9.472203043115787 27.683570552936356 1.0065833149544448 2 1 1
846 1 11.393775677949133 26.66083788546173 1.8318900252083243 -1 -2 0
1063 1 14.051607260376603 19.362876408682475 1.5577837686738618 0 -2 1
621 1 3.1092751324938472 1.7423280886554502 5.8395065132783435 1 1 1
161 1 0.9637649046814696 0.5788682154408307 6.307551777753603 1 -1 0
518 1 4.79488474524038 1.948617581222765 7.586307642069575 1 -1 1
1644 1 2.434796636628984 2.4432898944676245 8.057339465295165 3 2 -1
1932 1 1.010305525333094 3.2571348980849595 6.651689053599843 1 3 0
1679 1 3.2788612717445633 0.06617258241799512 8.156509954620176 -1 1 0
999 1 3.7661566381392326 28.07750380336156 6.050646872967032 0 -1 1
850 1 8.268091040627851 0.48226325144981785 4.4925491806572735 1 0 0
88 1 7.221474541374834 2.865526916143515 4.310430416737075 1 1 1
1541 1 4.912826442957195 2.463562482458753 4.557877127086718 1 1 0
1919 1 6.694922339824554 2.3371151655241174 6.566303934414095 4 1 -1
492 1 7.362058896950628 0.2088668734127488 7.128655289081382 0 1 -1
661 1 8.15781927313417 3.4303285840531417 8.376975828448874 1 2 0
837 1 5.69490042705857 0.5264016740027245 5.567613631364342 0 0 0
1914 1 5.3225523025832695 27.901300602089172 7.698210915940105 0 -1 2
446 1 9.097174634630976 1.7024411055977873 6.66193312216222 -1 0 -1
851 1 10.747223907969861 0.41555004477915913 5.366751965717077 -1 3 0
1059 1 12.289380914152995 2.0051092669073696 5.2497727129592135 0 -2 0
1630 1 0.6347856388422102 20.54925273293084 6.0052560894261156 2 3 1
333 1 11.33122845967647 1.21734451239073 7.493992273425144 0 0 1
1030 1 12.605466223779125 3.7306279808786105 7.818694459530008 1 1 -2
1847 1 5.900412739932462 0.36852045910508113 13.526481409004413 0 1 1
763 1 4.096824113459417 4.050129622206992 6.9172393148108595 2 0 2
2017 1 0.36662919599094534 4.9292608406394836 4.243592215721052 -2 2 3
1915 1 2.1812336080357664 5.228035359091373 5.6728323402089025 -1 2 1
726 1 0.6911666680094602 6.343632714361324 7.014681555223789 2 -4 0
460 1 4.757405613612167 5.808127252453212 8.54519093006618 3 1 1
1946 1 2.1872579500085916 5.081313188344822 8.30624338964132 2 0 1
1228 1 1.545195214797514 7.575497036461872 8.550966226496563 0 0 0
1212 1 6.99069848749308 4.844384305811198 3.7837632519767324 0 0 -1
35 1 5.946549641498246 4.3737085760909675 5.773985902767858 -2 -2 0
1278 1 5.328492688790552 6.369773246904076 6.32870293805101 2 1 0
1496 1 5.701072833925255 3.81975756897537 8.661472581866544 2 1 1
914 1 7.171291860384026 5.666169692400316 7.725369381139057 2 -1 0
394 1 8.579693136116914 4.1459993267626345 6.185576402918406 0 1 0
429 1 7.68384954299821 6.26099981681343 5.422692568493946 0 -1 0
843 1 9.210551662040094 5.578768432469126 8.623782399100397 -1 0 2
484 1 9.257376620996364 4.660164961652553 3.9845751089001284 -1 0 0
288 1 13.644452447476255 4.015092122761259 5.628964002906993 0 1 0
1516 1 9.977137215888902 5.907955554991124 6.465695800251262 1 3 -1
491 1 10.449843209673935 3.5882803991414916 7.516366134757662 0 1 2
2002 1 12.3595804203498 6.003912927858516 6.963429511068283 0 3 2
1290 1 11.476840845041416 4.233378112767031 5.355262092112748 0 -1 -2
859 1 13.01631407617852 6.401236541849532 4.734134707000732 0 1 -2
1621 1 10.750658882746723 7.182448158657293 8.372359873172787 3 1 -2
1862 1 3.3362851140493515 7.004116576287959 7.119749652852121 0 0 1
1300 1 1.3117350415775548 9.808758991876216 4.7267426966236785 1 0 -3
1252 1 6.023217761236193 24.07115588070837 -0.13116044650717587 0 1 0
1857 1 2.290745641612297 9.328008949823756 6.975503895229008 1 -3 1
1284 1 3.610796515795462 10.822896190003268 5.345810875030832 1 0 3
1830 1 3.6732924958742244 8.44232489244819 9.042340850688452 -1 -1 1
1456 1 -0.10728106143490129 11.168354887269452 7.846890295559861 0 -2 -1
1326 1 3.6330215428034793 10.549070006722433 8.269538662614382 1 -3 0
1658 1 4.499338653440001 8.896338188984231 6.473731834037964 0 0 1
466 1 6.200191580141012 10.616813270993369 6.90677523890631 1 2 0
162 1 5.454908706605773 9.794761448691053 9.662328761328808 0 0 -1
1860 1 6.1235134446922626 8.264492907882198 7.916704532793233 0 2 0
129 1 8.677532040103005 7.671675101016507 7.412568515380347 2 -2 0
98 1 7.547551827842513 9.334738687303478 5.798350681617401 1 0 -1
22 1 7.816412634899992 9.926596304245955 8.728478448447671 -1 0 -2
1394 1 8.270704671094707 11.703119061496121 5.675063086379338 0 1 0
273 1 7.809020590846847 7.679324369817245 9.99242727402863 2 0 -1
711 1 0.19817327256555473 18.442306416589346 1.5507808513123873 0 -1 0
1682 1 13.782161643022562 23.045238349378494 6.319889881182058 -2 0 1
486 1 9.28139542073498 7.788080847102169 4.979715136593228 0 3 0
1747 1 13.21328777183603 8.033795672713122 8.485346303705136 -1 1 -2
908 1 10.32758916618118 11.157272629668642 9.205941997075096 -3 0 1
1803 1 9.824189477932535 9.595415453744486 6.977679833256568 1 1 1
831 1 11.832384326843023 11.305231806677815 6.059964213604377 -1 -1 0
1153 1 11.417457152091822 8.138221023335431 5.907793132509634 1 1 -1
977 1 13.073061836740647 8.896062288172871 4.283866528145986 -2 0 3
1243 1 11.842825703703438 9.780204974452841 8.212928175565745 2 0 -1
1688 1 12.796063638278573 28.128815944308677 10.839093041737105 0 1 2
2030 1 1.6303654844683322 14.362374540547176 7.580712107016264 1 0 0
930 1 2.116597379082713 11.814552416505329 7.031458387379419 -2 1 1
729 1 0.5718880177803923 16.86293301386624 8.367045358391769 1 0 0
1026 1 3.6501992888888584 14.908957550687985 6.390613493762276 -1 2 -1
1199 1 10.63626895052742 9.998594392552816 13.94715700881078 1 -1 -1
866 1 1.5789265270519246 13.160032973104052 5.219788596147956 -1 1 1
909 1 1.0460799718133178 12.805306429065427 9.360842642251502 2 -1 0
1411 1 4.330010568088112 12.662589852390484 6.437246065369071 1 -2 1
329 1 5.988829369215437 12.308498179437962 4.988427761280022 -1 3 2
1492 1 6.344427660720387 13.455598138283719 7.044361183249547 -1 0 1
174 1 7.964127359931936 12.290724823034042 8.203288653328654 4 0 -1
104 1 10.243391781984057 12.500157567964802 4.717884940901355 0 1 1
371 1 6.9067649340293515 14.123869729007405 9.322517376155268 1 -1 1
1776 1 3.8383279464751956 13.670831370455128 8.504468493063516 -2 0 -1
44 1 5.395321239092224 12.081424940727944 8.85147558252343 0 -1 1
1965 1 8.657156371565724 13.881426725049277 6.349049019498013 1 1 -1
989 1 8.324463914819924 16.04437052044152 8.075398280968225 1 1 -1
1734 1 9.230844210341727 14.185091205651863 9.16231777486406 -1 2 1
289 1 12.785594021830288 27.17190628593955 12.982474660686112 1 -1 0
108 1 10.212964362620186 12.347070991592162 7.389993746718772 -4 1 0
973 1 13.756972901075486 13.244564768531205 6.079622148020959 -1 0 -1
619 1 10.502359204810007 15.752265461160004 8.062301412845049 1 -1 2
384 1 11.433761116240596 14.161164582191445 5.916718327220903 0 0 1
776 1 12.273822374102108 12.982731702259256 8.034944127013864 1 -1 -1
910 1 12.908162736979705 15.299891425877313 7.721561079263762 1 1 -1
1091 1 11.957436449602067 26.10092212835241 11.272489742138536 3 -2 0
2026 1 2.1573513668211843 17.791386317546934 4.15438703549924 0 1 1
213 1 0.650387612214934 19.58023221958231 3.80897691086939 1 -1 2
126 1 2.231230627358318 17.120119007709086 6.821778583860519 0 1 2
1130 1 0.08212092829775708 18.01096340362423 5.959718135734759 0 -1 -1
581 1 1.6947639332950546 19.000023365230067 8.157714851096122 0 3 -1
972 1 4.778749889719631 17.741392934277904 7.9176149467460455 -1 -1 1
163 1 3.6376847879303456 19.936031012080218 7.995857744696902 0 -1 -1
840 1 3.538140425240135 19.00925346063877 5.733613813149379 1 -1 -3
685 1 7.463903354124275 15.560596357551727 6.079409651688363 0 -2 1
251 1 4.697108413528884 16.90203758706187 5.336249264541639 0 1 0
804 1 9.323582409429761 17.944337990892887 8.806877195681428 -1 -1 -1
938 1 6.8126854658671885 17.640726585502797 6.806169812385462 1 0 0
782 1 5.636167803441496 15.503069886042352 7.641977181627453 2 -2 2
1659 1 5.966764389229692 19.81753929315324 7.505274746795561 0 0 0
1848 1 9.715918426530628 17.61304398598191 6.186815430123971 0 -1 1
1191 1 7.294778757067512 19.178971223382906 9.198302178166038 0 0 -1
373 1 13.923371273367373 10.967964605278862 8.56645026211324 -2 1 -1
93 1 12.01448554295667 17.039993791037805 6.471726123330314 1 2 -1
2015 1 11.96182002055497 17.420070627411715 8.934341989228065 -1 0 -1
1217 1 13.322295751264953 19.162130497673417 6.341169195319254 0 0 1
540 1 11.34388636409076 18.951477603862713 5.103468978754059 1 0 1
1339 1 10.781085512342939 19.430479825866932 7.5008820742031785 0 -1 1
1595 1 12.927381377517262 19.75083542734558 8.969124461719423 0 -2 0
1666 1 10.820456096585241 28.488425209265902 12.075047241774458 -3 2 2
272 1 2.578331441824485 20.98581015871364 4.513419650843671 0 0 -1
886 1 1.0921400083367572 21.463476934033388 8.525296804932037 2 -3 1
1404 1 9.194179949805246 27.447551938223395 10.908909770881323 -1 0 0
1281 1 2.836730509256311 21.894249684146413 6.978104310204005 -1 0 0
875 1 3.3077825531031175 22.574474599672616 9.36019762598805 -1 -2 1
750 1 2.0618535019494915 23.65475941384501 4.657213581646758 0 0 2
627 1 0.7341917625624712 23.496670955755068 9.220786228545087 1 -2 -1
1867 1 4.0902342983921045 23.782938938211387 6.314793728567394 2 -3 -3
1051 1 4.73592374970416 21.124366841752177 5.84328715245154 -1 0 -1
1744 1 5.015872658266718 22.28700435300411 7.715530544436054 0 0 -2
1577 1 9.05775267677458 20.667490200644195 8.820224081710588 2 1 1
1712 1 6.588457716231226 23.100571803705687 5.533474747274031 1 -3 0
1025 1 6.85915968081185 22.33278712818689 9.432317934721329 1 -2 0
40 1 7.2527440638759995 21.642484808148048 7.358373599080423 1 0 1
314 1 8.69816859448291 23.383122613663442 5.8699287695207705 1 1 -1
595 1 9.249782720431892 23.425075228979132 8.49587313723979 -2 2 1
1390 1 8.252395046154517 19.48695026174418 6.842469659338533 -3 -2 1
1502 1 11.7982055228176 21.45582225501675 4.520206540357811 1 -1 -2
961 1 12.225212271462636 21.216230534004705 6.9157959948701215 1 0 3
206 1 9.937611011562254 21.113829045456978 5.913704617190024 2 -2 1
1163 1 10.931984831436383 23.174595349047685 6.654221869615415 2 0 -2
203 1 11.256744095025379 24.219545994387655 8.890090443692209 0 -2 -2
1402 1 9.58493878313713 25.463864057833128 6.73786518074505 2 -1 1
234 1 0.06919896679149712 6.389600404427588 2.436275283139908 1 1 -2
1883 1 13.037276472485978 23.10876727515626 8.374053608701642 -1 -1 0
1312 1 2.137128870976479 27.133407808851523 7.3350304796195225 -1 2 1
772 1 3.068882847152433 25.900200380941097 5.403876635000909 0 1 -1
192 1 4.941799541420664 24.368246879701566 8.285246842454464 2 0 1
625 1 3.8722171898260216 26.32750816865551 8.82232098637841 0 2 0
686 1 2.4860069552043282 24.539745439152075 7.926324731255049 1 0 1
194 1 0.8032619116901376 25.591113584406866 5.851124539476365 -1 0 0
1438 1 -0.216857322845721 11.535925848289132 5.104524860037979 0 1 0
1383 1 0.972439413972237 26.329928303262065 8.83639980338014 1 0 0
1219 1 5.355765791969705 24.984488162441885 4.228309111862111 0 -3 1
11 1 6.770906551443057 27.458472086454087 5.192738238289265 0 1 -1
178 1 7.154841342112247 24.243894359750374 7.96185765484268 0 0 0
1478 1 5.262771230454336 26.05388942964376 6.345202637759631 1 -2 1
1802 1 8.785511925212273 25.829457645464718 8.995180561016708 0 0 1
315 1 6.251212847876927 26.28078965748285 9.591028302026873 0 0 -2
441 1 7.241750464023967 26.4837197770508 7.440285145002454 -1 -2 0
561 1 13.0267582764993 26.200361397999984 4.2496569950151954 -2 -1 -1
814 1 10.204925791288877 25.412507067382993 4.130060315318743 2 0 0
872 1 13.061066918259531 -0.18573307986853033 5.501543742547174 -3 -2 2
1319 1 13.321236942138041 25.849950965343837 9.204308732963701 -1 3 -2
359 1 9.076334160480444 27.493456668931636 5.64478022174057 -1 -3 -1
302 1 9.375661264638424 28.04972810341382 7.788123134211579 0 -2 0
134 1 12.498476350639573 28.031315158829944 7.9679501417461935 1 -1 -1
1990 1 12.493521352444716 24.957078527887383 7.044977762901529 -2 -1 0
2025 1 11.3315496720938 27.059040118410557 6.170767841430954 0 -1 -2
327 1 10.862585448910425 26.638387568251837 8.881488695721059 1 -3 1
1317 1 8.106644387144847 25.24350952419087 12.94848276432001 -2 -1 -2
1671 1 1.0699209601810475 0.37527673302187325 12.256751497283226 -2 -2 -2
2039 1 1.8642523937526945 1.4531643328514763 10.11855051701802 1 0 1
732 1 3.3835789002977448 0.18625082656383146 11.750313417839607 0 1 -1
459 1 2.8121691376746045 2.4056929174700414 12.262203077220283 0 -2 1
1413 1 4.437049581623651 1.7846219016677982 10.228968751002684 1 1 -1
1117 1 0.1947278104113403 27.51157924922774 11.353296837691701 2 -1 -1
1105 1 6.599564820595303 1.3274334806898112 9.00895055192501 2 2 -1
594 1 7.388771349907117 28.182437094639127 9.428187731282756 2 -2 1
1954 1 5.581573613568059 2.290895505069873 12.347980730581336 -1 2 2
1711 1 6.579425502284254 0.737034150841883 11.086349801302577 -1 1 1
826 1 7.578040376951184 2.952746153098672 10.736561147395053 0 0 3
577 1 7.806241655425589 1.7807786895612994 13.571824948484466 -1 0 0
1780 1 8.867699677548414 0.871744271489971 11.514508151668878 0 2 0
1336 1 4.833873601169388 28.409260965316818 10.093616054020094 2 -3 -1
1493 1 10.906288325080542 0.025980430150373213 9.956110973570109 -4 0 1
1575 1 9.969180963241593 2.7639577006929517 11.8286496898081 1 2 0
1708 1 9.03592557555762 1.0879570448557272 9.107747188728146 1 1 1
1203 1 -0.09455809775812318 16.71489707461626 4.1553707500602926 0 0 -1
116 1 11.9373253709739 1.6476314612717293 11.614597491498822 1 -2 -1
1910 1 12.760276280046389 1.5801837550685782 9.268385776187051 -2 -1 0
1536 1 13.54147090970248 2.8539064790165285 12.800434847316776 -1 2 0
498 1 13.719847495976623 1.5352644510803806 7.099668726398091 0 1 0
567 1 12.488044234739947 0.6239842186999874 13.56837779881724 1 -1 -1
598 1 0.9882848653268719 3.5773687038996167 10.842370164074707 2 0 2
933 1 0.5532520616830847 3.9121940073618324 13.12334042434761 -1 1 -1
1840 1 3.497413036945713 3.769301729946739 9.844881108131602 -1 1 2
2035 1 0.9077705112527212 5.640205256324478 10.03284882456273 -2 0 -1
1838 1 2.4345736215535507 4.850437456844026 12.158276653629848 -1 -1 1
521 1 3.223568916721741 6.452231670087509 10.21652683809964 1 2 2
555 1 3.3915830367195747 7.546090373337829 12.767649460365224 1 -1 -1
745 1 5.270422567469779 4.653753835712594 10.942623132702563 0 1 1
464 1 1.6254297013540728 7.956537269228853 11.140906428722666 -1 1 0
825 1 4.277945748035329 5.311240252672462 -0.16995498175649226 1 -1 0
1854 1 5.608018710876055 7.4033258998577045 10.112416557569532 2 2 1
1662 1 7.182851090785209 5.497758084896368 10.127345865224175 0 -1 0
526 1 9.096218139035567 4.710581291902659 10.796470620083737 2 1 0
532 1 5.77863744765197 6.389953477040667 12.64003405423892 3 -2 0
1939 1 7.263867125524686 4.384740600953791 12.582397852409635 -1 -1 0
103 1 8.105219435887436 6.891245820146431 12.139448638913493 1 0 -1
1928 1 9.967861372108402 5.635631303441059 13.223478541628596 -1 -2 -1
282 1 4.698846902193138 4.350764813466316 13.055491674847545 0 2 2
1392 1 13.404254221737837 6.341038521695079 10.878197663681624 2 1 0
1535 1 13.58498870718513 3.5757900704818444 10.332811341046938 0 0 -1
511 1 10.579917828526966 2.8158812856360074 9.558788960308885 1 1 2
1224 1 11.326486491153068 5.065444120161151 9.422199783941297 -1 0 -1
912 1 11.541475141996813 4.297656863679821 11.652202800104718 0 1 2
514 1 10.2270339500927 6.804391535686952 10.650559690801744 -3 -1 -1
1966 1 13.111721666302124 5.011800462287067 13.399220240096527 0 -1 0
1259 1 11.981950197865478 6.951490281774526 12.639560695501519 0 0 1
1465 1 0.6360440334669814 0.09312630062173805 8.757011370458748 3 0 0
848 1 9.66817822210902 14.062466605162864 0.4190731601226302 0 -1 0
208 1 1.2178805481614057 8.482679811717317 13.33717876167754 0 0 1
817 1 1.5132409130069029 9.968313630361857 9.13475721756639 2 1 1
1099 1 3.696686432251685 9.342283993956343 11.189430099922191 2 -2 0
552 1 1.4009022419566064 10.212013506360336 11.799480003824579 -2 0 -1
1055 1 3.1453219201096196 11.42393940156887 10.188318523466812 2 -1 -1
157 1 14.173065579885227 7.056715558129829 12.975947568357874 -2 1 1
1239 1 5.635890727838267 8.8509479347595 12.136085040875228 1 2 1
1328 1 8.156778298511625 8.812780894098438 13.645287756890855 0 0 -2
188 1 5.586198437281752 11.03041344646153 11.834548014124726 1 -2 -1
1540 1 7.732933342949785 9.587487876218495 11.383385389355459 1 0 3
1930 1 8.473595666402952 11.510421124697102 13.067210708297143 0 0 2
660 1 9.742269235806855 8.899152487050221 9.635342249555208 2 -1 -1
1517 1 11.981365110340466 8.170998011268315 10.367093769392705 -1 1 1
1537 1 9.9830429046703 8.73351869281425 12.105166701735067 1 1 0
1361 1 10.283261657150081 11.098353897974057 11.515600261324565 -3 -2 0
433 1 12.578540353329752 10.739157607520932 10.161356840840465 0 1 0
1735 1 12.549070129271497 9.44839944460925 12.179383417412266 0 2 -1
1843 1 0.21463951197051123 22.99627050204915 6.161625547841693 0 0 1
138 1 14.017514146665423 5.391060740715397 2.5842476753400487 2 1 -1
1512 1 0.8063324051747962 15.452339403057803 11.098998728201392 -3 0 2
573 1 3.1637926247858505 13.753947319658803 10.652982802981521 2 0 2
997 1 3.6595832438201956 11.938628991401705 12.608495721087618 -4 0 1
1906 1 1.3152097725991285 12.54678495752668 11.523947594430258 2 0 0
1598 1 12.786406799178087 24.629410237894405 -0.20838644682263247 0 0 1
432 1 2.337102097973298 14.431802502986745 12.901454997458357 0 -1 1
519 1 3.460825114118674 16.654782970210448 11.439580355917268 -2 1 0
358 1 8.441080593711481 28.00799400978867 13.032330612373405 1 0 -4
810 1 3.0647661833209936 16.264186386378302 8.769942996076635 0 0 -1
1894 1 13.521436999872915 5.382702526836412 8.951719061829554 -2 1 0
1254 1 8.47171809678981 13.907911231258081 13.867177736888127 0 3 -1
2019 1 7.611662244822689 11.706686893487152 10.303681078841825 2 2 1
13 1 6.130891568286858 12.863499043740863 13.493068594862969 0 1 -1
173 1 5.161345077383806 15.468585030920787 10.239696010540685 0 -2 -1
212 1 8.821617628888356 13.410900137853405 11.314817556702677 1 -1 -1
166 1 4.598525465448882 14.804932846839874 12.726394962261228 1 2 3
712 1 5.241926108933223 13.090260754309062 10.875918982002796 1 1 -1
1724 1 6.861367548155929 14.512988217100673 11.796316363212613 0 0 2
1407 1 4.8842027602465965 24.18461459428284 10.59261662219747 0 -1 1
312 1 13.095214393850272 11.852598427522933 11.967733843928215 -1 0 1
583 1 11.966672259098855 14.881454458088003 9.9951972237997 1 -2 -3
1814 1 14.054989121363194 13.074013076420684 10.187281463940428 1 -2 1
559 1 10.918050336320892 12.482833215606016 13.462430401629721 0 0 0