LAMMPS data file via write_data, version 29 Oct 2020, timestep = 300000

2048 atoms
1 atom types

-0.2726331587679436 28.624633158767065 xlo xhi
-0.2726331587679436 28.624633158767065 ylo yhi
-0.2726331587679436 28.624633158767065 zlo zhi

Masses

1 58.933

Atoms # atomic

1131 1 1.281889705794898 1.587163951155812 3.8808543240509463 1 -2 -2
1029 1 4.139538826145678 0.09112009648801778 12.053260544532984 -1 1 1
892 1 3.8003037529375163 1.4591250558422317 1.5242814884078486 -1 -1 0
254 1 1.475790410268305 2.405531564979807 1.5577214276247313 2 1 1
490 1 2.9587490153702385 3.373126304143573 3.2735538363091874 0 0 2
1341 1 0.36864501349570955 3.737455565537326 3.1166480264682206 2 1 1
436 1 4.4283502494728655 4.035897834999688 1.4935349903385071 1 2 0
1921 1 7.136681755827845 1.6474371797764396 2.6617830129719304 2 -1 2
180 1 7.6390436170025735 1.39992271297618 0.22611927890850975 -2 -2 0
417 1 5.72755404099028 2.4476490099937322 0.6754013313670442 1 -1 2
194 1 5.20557951825515 2.6283066302734928 3.25560940330588 -1 1 0
1019 1 5.361968220871344 -0.17548538764902005 2.3573262829118025 -2 2 3
2035 1 7.074738161877594 3.4056947783057723 4.471749320903104 -2 0 -1
272 1 7.457983428119019 3.7857661622572225 0.04750256095140698 0 1 -1
2 1 3.363076947970059 0.6985899275208154 3.466403801459419 1 1 1
142 1 26.749177894998333 10.383984620057511 9.861513133320548 -1 -1 1
1605 1 11.79878759810378 2.0314022899041073 0.7928609811449268 -2 1 1
288 1 10.451767451577572 2.963652033668244 2.8708321392253593 0 1 0
1328 1 9.148650689435042 0.7308936607678083 1.9015953973733666 0 0 -2
377 1 9.480762841173137 2.855240786295001 0.7352348708580809 -2 -1 0
1987 1 8.22288124484438 3.891872705282574 2.545700127492772 -1 1 -1
167 1 24.35503979642975 0.08674202429778533 10.823461354641394 -1 -1 2
695 1 8.772046330228871 1.9052774019571648 4.303062865564221 -1 0 3
61 1 9.482920145705634 3.999692825832051 5.042637753014759 -1 1 -1
344 1 0.13449780950972734 12.317546179642576 11.694952798311482 0 0 1
270 1 11.858684236595904 1.0055025879791455 2.853759447162637 -1 0 0
125 1 12.690271916971557 3.6193955414089007 2.247199674181587 2 1 -1
547 1 15.222941933977838 3.5873866468585938 2.2345905283809877 1 1 -1
1347 1 14.023665029379103 1.2192793876088739 1.682044019914668 2 2 1
1763 1 15.648266715279656 2.337111536521541 0.359544088564722 -1 0 1
409 1 15.577074237077397 0.7644785955286728 4.283427143551042 1 -2 -2
151 1 13.850239951723747 2.550239331922709 3.780302743882305 2 1 0
769 1 20.940759951380066 2.328407782242716 0.1693525397383227 -2 2 1
1545 1 17.111132202854996 0.7117164161967445 2.0531297745225974 2 -1 2
1484 1 19.416509141113373 1.8204283584250254 2.241542815862046 0 -1 1
170 1 17.35129352777303 2.7470706043875674 3.750034455848323 -3 1 0
563 1 26.226629919722335 9.23127977079157 -0.05903037255809443 -1 1 0
677 1 16.374628823315376 4.673255846356542 0.2728049692876099 0 0 1
1781 1 18.23352017294431 0.47516523514943587 4.1025832384508965 1 2 1
1118 1 18.17045607102782 4.005038194202646 1.787858786103003 -1 2 -1
1532 1 18.909679241018694 -0.2007150241946587 1.092889952958053 -2 0 2
766 1 21.840789566110494 2.1886530916507185 2.9978003510993543 1 -1 0
497 1 20.71969404618303 3.830155572022596 1.677722652544436 0 -3 0
72 1 22.707868754966157 3.3343817025947398 0.9372494824193847 -2 1 -1
1043 1 22.499062831844277 0.08114750316246677 4.697739243694016 0 0 -2
498 1 23.26813238357775 4.089885534001566 3.4037322209866323 0 1 0
1183 1 23.910906203591125 0.11627775371337662 2.7299847113945437 0 0 -3
649 1 1.2009944987766792 -0.02855251898471095 1.8892013185961476 1 2 0
1668 1 27.22362701769009 10.951965868580604 11.990265850801425 0 0 0
1741 1 24.203624146849194 2.4357464273123446 2.467288332991138 0 -1 1
282 1 28.291793861491342 1.313000889549237 2.1178963258397854 -1 2 2
1013 1 28.010440871654502 2.339928632152439 4.176253296214475 -2 -1 0
1756 1 26.62954687507247 3.0373627857828516 2.245656381800791 2 2 1
752 1 26.037626759889385 0.9215245568079444 3.6605262931467917 -2 0 2
1085 1 28.493490614812345 4.133426439428801 0.980956141643029 0 -1 0
2040 1 25.987652190658643 1.9094151301578903 0.36747316345297987 0 2 4
1336 1 2.0551791550978864 4.797461867577427 1.4425635430364154 2 -2 -1
1297 1 0.2147028052245939 6.256671097129801 1.2636577358358148 3 -1 2
126 1 3.8174416971882197 8.69981777337137 0.32116936558090103 0 1 2
2017 1 2.4238696071211967 7.2401578348768965 2.223931714592308 -2 2 3
114 1 1.7872641205347835 5.492056654393215 3.841030834896751 2 4 -1
385 1 1.5032113478439053 7.874602784332435 4.81925248686123 1 2 0
1293 1 0.2100847574906497 8.853698394944065 2.8587703280136263 -3 1 3
943 1 28.334664019204382 12.208858791838221 13.922456019280856 -2 -1 -1
1233 1 3.8130270545270575 5.693679835221662 2.8019739367417618 -1 0 2
1609 1 6.18668421216387 5.117862911601273 2.8882429087748585 0 2 -1
273 1 5.4913411940237715 7.505494130093008 2.545660145712101 2 0 -1
455 1 3.7431111817157756 7.9364850480559035 4.210229094900861 -1 1 1
1888 1 5.828935071030996 6.24496431802146 4.799993854021137 -1 -1 -2
1611 1 4.258320864903561 6.477898520142346 0.6811486902156759 -2 0 2
1540 1 6.381750305679524 8.238525719786898 0.3403411557892896 1 0 3
1481 1 6.404561007138114 8.731760458812639 4.304888875086479 1 -2 0
188 1 8.00648698368053 7.500253935764306 2.4162441336353355 1 -2 -1
860 1 10.341552201429044 8.269124144196667 2.374406248952059 0 -2 -1
922 1 9.050465136067373 5.449005412314189 1.0986019736413943 0 -1 0
1242 1 10.133303639715047 5.252754368785986 3.208356344655401 -2 2 -2
668 1 10.879387761103722 7.062604155209178 0.457067646211725 1 0 1
751 1 8.636172303751815 7.59235463635789 0.16376574922343973 1 2 1
509 1 11.535742330618353 4.568711675643561 0.2545687870268486 -1 -1 0
1993 1 13.436316068059012 7.694991142569558 0.9527916647514454 0 2 1
1961 1 14.035653109899929 5.1000832997115575 0.6491766060391458 -1 0 0
1761 1 11.954207812223851 6.1759133423973545 2.323879481033559 -1 -1 -1
1143 1 12.74802774386617 8.781340769833522 3.0895787317465775 0 2 0
1356 1 15.115487530691635 9.031565764718557 4.710180434103861 0 1 0
382 1 13.9500046057829 5.520471414755797 3.0268983428109064 2 -1 1
1996 1 14.965174742062349 7.590868091941403 2.7270739702785254 3 2 2
1536 1 10.115716139649853 0.04161069649386179 3.928196535866431 -1 2 0
1182 1 20.6114200371077 6.085997168881411 0.6025889853112761 0 0 2
659 1 16.786975129845942 9.47698809302906 2.8781595883530877 1 0 2
691 1 18.466314872616287 7.707406530600243 2.771594590351108 0 1 1
1079 1 16.34085413862369 5.765935488838879 2.488390500572063 -1 1 1
1590 1 16.868145101830805 7.793294764145713 1.113156217130711 -3 3 0
634 1 18.355898041293415 6.070265369344078 0.7116818215403283 1 0 0
859 1 20.19496894045252 5.627059595433592 2.782374315906726 0 1 -2
1171 1 25.026664499144218 4.522451068280392 0.8922566132684133 -2 2 1
1800 1 1.010756074119185 -0.15395598097396324 13.430243840019786 -2 0 2
1639 1 22.751914146732418 5.76575249531235 1.3402180984645669 0 0 0
1350 1 22.27205353792398 7.107757474895558 3.7021666416416315 -1 1 -1
657 1 20.587217376772422 7.915914007843348 1.6587450784265771 1 -2 0
387 1 21.424648627744396 5.006905434740549 4.836841074637322 -1 -1 2
1 1 22.943236134188894 8.017192837118616 1.6308869071278014 -1 1 1
669 1 24.579231635356784 8.499516459602198 4.2461445870602805 0 -1 1
14 1 24.393755271950333 6.240171869769881 2.9505201722815784 -1 -2 -2
37 1 4.645604898475018 12.630123573855855 13.654072847938373 1 1 1
1879 1 25.52748448234901 4.186639140006264 4.01647385694554 2 1 3
1621 1 27.19346932205191 8.113028746170214 1.8785544793177706 2 1 -2
614 1 -0.10523600363436297 6.802525193260994 3.637438864061713 0 -1 -1
642 1 26.687358089498964 5.493487904707058 2.1244408483340487 -1 -1 2
338 1 26.60302646375672 7.095369377539349 4.105511791461417 -1 0 4
1623 1 24.97100732673072 7.051057414376156 0.8257993327439834 -3 1 1
253 1 27.16018668481641 9.307046999320027 4.132511102624791 1 -1 1
1738 1 1.642792343451169 9.403521984933706 0.8763024639178223 1 2 0
713 1 2.509318717648445 9.623450904368758 3.196666152929704 1 0 1
1990 1 0.5399001034387554 11.326429806327916 2.3031029442627946 -2 -1 0
1114 1 2.754805235520763 11.24043909604232 1.3289612348543427 3 1 -1
1003 1 2.3687982995955745 11.782042305658742 3.8025087466628813 -2 3 1
1785 1 4.380974870827371 13.214974883057273 0.8074936300815212 -1 -1 1
1631 1 6.618639719470919 6.047293355596655 0.9771282620920623 1 1 -1
119 1 0.4256118045581695 13.012859796508732 4.163160685817059 0 0 1
1055 1 2.3698174104171392 13.95405203510564 2.700559311732145 2 -1 -1
1613 1 0.4311612971351766 10.204926932941339 4.889002509635926 -2 1 0
1766 1 16.06115347178656 13.974979336452936 3.2267064682712556 1 2 1
416 1 6.925901139291558 9.771131566193036 2.0799193533259084 1 -1 -1
275 1 4.728034619181675 9.675913555016225 2.2127736586758258 1 -1 0
1637 1 5.708399698559022 11.285995354969899 0.8257312973230917 0 1 0
169 1 6.8933080006745255 11.106121424971283 3.9557667423624894 1 2 -1
1071 1 5.093770514009747 12.113258072890648 2.8351082500467952 0 0 -2
265 1 7.3020169684546135 13.828832794704624 3.333166466859799 1 0 1
298 1 23.790138187414115 13.357972647998624 0.14856633341979053 -2 1 -1
471 1 11.058582500779664 10.719563559760728 2.5830810704267266 2 2 0
140 1 7.918479316719349 11.77110130735351 1.9596020797448142 0 -1 0
1312 1 10.004489339317042 12.249516910075988 0.7013599084126829 -1 2 1
530 1 8.90879070685896 9.939717412704546 3.5788938849173633 1 2 1
1446 1 9.468839983641749 9.910279394871035 1.1040191534577215 1 -1 0
661 1 9.675293939360701 12.891867035852874 2.8938426899305405 1 2 0
806 1 12.220497524348833 12.361782621861542 1.1578362704675402 -2 -2 -1
1721 1 25.609415972243 8.373724295603626 14.034242684959201 -2 2 2
989 1 12.152365938992059 9.734508275301923 0.7448539488452293 1 1 -1
624 1 12.171454032429947 13.334059939255894 3.830523463342818 0 0 -2
1123 1 12.995939113287248 11.080830706884187 4.547059704954599 0 0 -1
888 1 14.267800563147606 12.347827042761168 2.524780174492238 0 -1 0
1698 1 15.149938447445402 11.493821712340607 4.244369857992118 -1 2 0
971 1 14.604775779920692 9.964260588632728 1.9392482979058796 2 0 -1
805 1 15.753906867715637 12.836392535790528 0.5784811533465003 -4 -1 0
2019 1 24.800064482262016 10.218022798289562 12.921962858601862 1 2 1
38 1 20.710549488426906 9.158289283028322 3.7334372082242293 -1 -1 2
261 1 19.088083755560753 10.068648569850286 1.3762732681646639 2 2 -1
843 1 16.806419877900368 11.743710916282561 2.3379561327077516 -1 0 2
414 1 16.710974774045944 9.945984926537887 0.6161131871350741 0 -1 1
79 1 17.90431579983604 12.367347477477981 0.5801321706996028 2 0 -1
1248 1 19.16084514573059 12.629065913568086 3.0723738555337414 0 1 -3
488 1 18.738956414937213 10.442463555172882 3.921287146078935 -3 -1 -1
1561 1 2.151420577098041 0.5851762251106944 -0.04433229004430389 2 2 1
389 1 21.016899624898294 11.060205953306818 2.3885826871719895 -1 -2 0
1992 1 21.28496751911095 13.362981666536529 3.9217532473912096 -2 2 0
1760 1 22.931444044552308 10.043320749320378 3.2503677578368757 0 1 2
1367 1 21.639006741392095 9.716851541313678 0.4378212328017208 -1 0 1
13 1 23.753121450278897 12.860141530464642 2.659028714830673 -1 1 -1
292 1 21.52559897111498 13.107390645534744 1.6461081910723248 -1 0 -1
1414 1 23.003665440831135 11.687666700043698 4.6871474952598495 -1 2 -1
666 1 23.515056083498628 10.982527485388706 1.271104303444073 3 -2 2
51 1 24.86514762578426 9.294578079075928 1.9545475525615599 -1 -2 0
458 1 25.466391161379896 13.962317144935982 3.7073952075324055 -1 0 1
1432 1 25.43160181205355 10.966229705906517 3.6779839118674893 0 2 -1
807 1 28.11669198433252 13.041649382075667 0.8004036170628412 1 1 2
1746 1 25.87704520248996 12.481486141274228 1.541664536662049 0 1 0
722 1 27.262084847389332 10.322037124340358 1.9625045375792411 0 0 -1
1806 1 27.303026058948873 12.479798043209598 3.437839473455906 -2 1 -1
1443 1 10.386896193795886 12.933601726320644 13.61548969557868 -2 0 1
1388 1 3.3825512681611642 2.2652232654220756 5.559239077461809 0 2 -1
887 1 1.1880539319100691 2.0104613774168767 7.101338057483551 2 1 2
86 1 1.0842467867515169 4.14894399942708 7.738734586392695 1 0 1
1796 1 1.4234176440408688 3.4255648397245797 5.4493162684858945 -1 0 0
1281 1 2.9468354524665807 2.079197048780497 8.356879515713887 -1 1 0
855 1 1.1610772042076951 2.692134550636784 9.658239421321353 0 0 0
994 1 0.4559971299144977 0.6021608966941938 9.433321182193355 0 1 0
793 1 14.085378083370276 11.462104445164533 -0.09496540862812583 0 0 2
1091 1 4.427820622041918 0.7559502635688891 6.945554620208191 3 -1 0
1139 1 7.114873880086089 1.792989867815077 8.24897628608793 -2 -1 1
1643 1 5.536314897953489 1.076389099895478 4.707852846141482 1 1 -1
611 1 5.6309511053887995 2.767879203605103 6.664876413433311 2 0 1
619 1 7.059039584466049 4.225033464136699 9.16752545293067 1 -1 2
644 1 5.194749394569093 2.8234523200106114 8.95807924445486 -2 0 0
872 1 7.518808284694787 0.9080965982234861 6.083095408716662 -3 -2 2
1268 1 4.447076761228656 4.391721082816952 4.829207644068125 1 1 -1
1323 1 7.923360877808559 3.4005068451144167 6.785412244780213 2 -2 -1
1492 1 10.444571165385861 2.514119814104402 7.258614469321924 -1 0 1
792 1 10.069502623984697 -0.008345866539338054 8.903475503713421 -1 1 0
1232 1 11.54079661103933 1.9263701802853728 9.227813734108366 -2 2 0
1836 1 9.42709251057925 4.303372781293213 8.687446570808575 -2 -2 0
912 1 10.911651860301994 2.3003500814727316 5.009364842750488 0 1 2
2016 1 9.930610611665431 0.32947101275780255 6.231656864689296 0 3 1
1748 1 12.778675540512664 0.7045398779323887 4.930030638835343 -1 0 0
291 1 13.741265187758506 2.0533500463094336 8.467728186366687 -1 0 0
334 1 12.944213904876959 2.9240840849883307 6.268526058333478 -1 0 -2
1600 1 14.451250237649631 0.5070446617045687 6.625588809587896 -1 2 1
1247 1 12.133519746263062 0.3877500607389367 7.335135260167625 0 0 -1
489 1 15.163720065504323 2.7122949339011435 5.88002171403032 0 0 0
43 1 11.912564509168906 4.094956507390932 8.751982987741453 3 0 -3
2009 1 14.103170792689047 4.397229478113054 7.966635941880305 2 1 0
1914 1 15.664163452888157 4.112587369175483 4.400526983925721 0 0 2
1692 1 15.988632909078364 1.3546991980948255 7.968894689795725 1 -1 2
777 1 16.420184503647526 3.4479362376713723 7.7114898776401235 1 0 2
443 1 18.4148871937902 2.2358328034343895 8.322258635917526 -1 1 0
940 1 17.76709081919884 1.8230393497065278 5.88788706609518 -2 -1 0
1152 1 17.79079313363281 3.969277407341493 5.848071402736967 1 3 0
93 1 19.165503461322984 0.20491683546285377 6.57407044340664 1 3 -1
1936 1 20.50591066512454 1.1806332724200856 4.617864254446045 -1 0 2
5 1 20.15646830198662 3.02846281903672 6.623500564481226 -2 0 -2
1632 1 20.371489369031245 0.6845032589990204 8.97671735613141 -1 1 0
439 1 21.48661120865207 0.8380640021005787 6.609540205144809 -2 2 -2
16 1 22.081703266223805 3.074558293934655 5.359339464868202 -1 0 -1
1838 1 23.37513782237628 0.7989639684421503 8.789648404613468 -2 -1 1
880 1 22.170570072970747 2.6245196453487107 8.512839839729587 0 -1 -1
875 1 23.886698130882017 1.6372489745199859 6.702026965451228 -2 -1 1
461 1 20.252362505802445 3.0242020140100467 9.51125564108215 0 2 1
1083 1 6.9957569436318225 12.726610750440434 13.798699411448887 2 -1 -1
1555 1 24.96814717287159 11.908155545134324 10.699445885580692 -2 -1 1
141 1 28.382321704891226 0.6472193637192245 6.190451718215319 1 0 0
1010 1 23.84928606116096 1.9180191444415162 4.635499546737604 -1 -1 2
718 1 26.059479453419264 1.6590154460013464 5.68752086711127 0 0 0
898 1 25.76877484774365 2.065980683583988 9.285234666650911 -1 1 3
1187 1 27.707030102747368 1.7401011026920976 8.12918833757217 1 0 -4
209 1 25.775845042210342 3.092040280597927 7.376952669217328 -2 -1 -2
452 1 27.649351316971455 4.958732329878472 4.414210013943685 -1 0 0
1086 1 24.165931229209846 3.8181400387239623 8.74133923868117 0 1 -2
438 1 27.934866924344064 3.352638075560694 6.412772125891123 0 0 0
876 1 27.827962397718217 4.251749700684039 8.649517695365214 -2 0 2
1109 1 1.6828903325180913 5.8991963580518 6.084617649445622 1 -1 -3
161 1 2.987786752466827 6.3156755222314125 8.765679569891947 1 -1 0
1300 1 1.460579859149815 7.983318503576594 7.29601880154577 1 0 -3
200 1 0.6578319556611915 6.0260264999969895 8.891615040415276 -1 0 -3
1694 1 3.2172751471301404 9.217446380217368 8.079659996590726 1 1 0
566 1 2.1963138676730503 8.520931121801793 10.06526462601472 0 -4 0
1506 1 28.090167670000092 6.058635162864819 7.228869246012721 -1 0 -1
729 1 2.975636814505163 4.272072715869026 9.495331674890716 1 0 0
749 1 3.5584364014373344 4.491046879550684 7.282827152614643 1 2 -2
559 1 3.9555129121113772 6.745612515584906 6.571061343862796 0 0 0
991 1 6.232664278428692 4.982708313048779 6.740167778496627 -2 2 -1
1218 1 4.929702987782314 8.823658470023892 6.021030987579942 0 1 2
560 1 7.508611574581271 7.1013546212605805 6.132732838470385 0 0 0
1857 1 5.91282884053043 7.4823720490998635 7.820896104210997 1 -3 1
974 1 7.917032232357677 6.243360246429242 8.750945383353217 -1 2 -2
1678 1 5.028959483260213 5.358955586281715 8.646007992019742 -1 0 0
1251 1 5.679926513115585 9.789524628496649 8.297825651177268 0 1 -2
35 1 7.974172852727413 5.637413979858045 4.056764301529617 -2 -2 0
2030 1 10.95990118804485 6.4645648060828425 5.005349070475083 1 0 0
449 1 11.37701714212785 4.677276533750637 6.6471767178878896 0 1 1
2046 1 9.03226864673555 7.791121303261692 4.588566139630501 1 0 0
1858 1 8.110244736173668 8.542975250321419 7.873557613194841 2 1 0
1753 1 9.141487035136509 5.606853667105058 6.658552806887882 2 0 0
593 1 10.537192044909489 6.7615984269400675 8.408241003838015 1 0 0
2028 1 10.282454142138922 8.13063375353758 6.603319771043024 2 0 1
174 1 11.009269759720095 9.023588037430727 4.5157444967918865 4 0 -1
1752 1 10.325816981914892 9.086911967753391 8.894580494766295 -3 0 0
1662 1 12.108885594595137 4.32274241341736 4.333020286820557 0 -1 0
1910 1 13.970221225657335 5.06738893018187 5.499504295122896 -2 -1 0
1853 1 13.303279017277953 7.003407412916534 4.693743036739091 1 1 1
1023 1 14.948504728972742 8.100051075876369 6.757993164593555 3 0 -2
1712 1 13.01446805998204 6.712828587487335 6.970202898649055 1 -3 0
198 1 12.684378454552563 8.135323455084293 8.581136112275503 1 -1 -1
1490 1 16.131085070524854 6.66751604815287 4.742762190685896 -1 0 0
511 1 12.747080918435474 9.167050329664608 6.070882104903126 1 1 2
602 1 15.067192060710264 7.2488347251123395 8.940310933467918 0 1 1
1905 1 18.248659454498018 5.628885509552592 4.236942754234128 -1 -1 -1
365 1 18.113632211075235 4.922157632264362 8.304877834767902 0 0 0
575 1 17.767512875312832 8.279213479301651 5.02671816221815 2 -2 1
206 1 17.749348122763976 6.66993294301792 6.456592155354373 2 -1 1
1663 1 15.892901680804504 5.889409903608527 7.096322868655834 1 1 -1
1471 1 19.355541826615855 7.3811837167020125 7.8858778515146 -2 1 1
1874 1 17.00437376093977 8.856275756628461 7.567960186039349 -2 1 0
679 1 19.326436055444837 9.14416942078126 6.237793078083685 -1 -3 1
830 1 20.209532234224078 7.166957921471605 4.920888227162765 -1 0 2
473 1 24.097723629698855 4.103412771872498 6.14347753424043 -1 1 0
1906 1 19.783979834651902 3.3606287906931884 4.449532318913248 2 0 0
1664 1 24.063560743300805 6.1269815398213066 5.297491195289887 -2 0 -1
1980 1 21.84775741723493 4.592853669269855 7.278887215099364 1 0 1
1801 1 21.71520589313524 6.932049710840787 6.976238598071414 0 1 1
1303 1 24.07053921736263 6.048875831893978 7.729841564867213 -1 -2 1
1941 1 19.68472737263302 5.286595961448796 6.553163590334523 -1 0 2
561 1 22.080827606893614 8.692181757086887 5.494016234060757 -2 0 -1
466 1 23.78027048044283 8.184566722212397 6.838025430821424 0 2 0
1095 1 26.106868187712045 5.396093217271503 6.258578373196388 -2 -1 0
85 1 28.390190092102763 8.178570886452352 8.77991798431904 -1 -1 -1
1947 1 26.003866251918616 7.622369904778684 6.408503734262458 0 0 2
965 1 26.087063768979597 5.851753713172277 8.910873123485729 1 -1 2
208 1 25.821515090227784 8.3927064002675 8.575797534933665 -1 0 1
1212 1 28.210129857956964 7.661484002724693 5.737440065259836 0 0 -1
1181 1 2.1840116141439103 13.904849248714104 7.945883137495059 1 1 0
117 1 0.7365666621221516 10.791480722328412 7.407525557205864 -1 1 1
1512 1 2.6286261583105497 9.625737226716334 5.780547702739758 -3 0 2
1794 1 0.57980720181217 12.621308811148461 9.046768657471723 0 1 0
1253 1 2.2618095956275077 11.99963066859426 6.114706226223679 0 0 2
278 1 2.72364126783543 11.757895755052482 8.812260258734435 0 -1 1
631 1 0.14627484969902138 13.083376469856773 6.583705858441317 1 -1 1
1108 1 4.5991245225394355 10.584812250295732 4.569751929666061 2 1 -1
1159 1 4.391122603954075 11.278455720390612 6.900128898538726 2 -1 -2
22 1 4.454152183630512 13.509433044816896 7.1838204791815174 -1 0 -2
1068 1 6.539794736447166 10.534535082346874 6.284863491732035 1 0 -2
1382 1 5.995507702678311 12.976138215937823 5.150621536316342 -1 -1 1
280 1 6.7430572201776675 12.282442347503679 7.714176622986713 1 -2 -2
39 1 3.7763428160866424 13.136953701822685 4.632696334216675 -2 1 -2
874 1 7.324002954231204 2.667447488331458 13.463242233374938 1 1 1
934 1 10.792803718685748 11.578089070140715 4.686181602147775 -1 0 1
1133 1 8.658089291744268 12.146127631957775 5.478400742414411 -1 -2 1
1284 1 8.77324160552937 10.988738546833911 8.135738272926082 1 0 3
1916 1 8.754477552590572 10.06561551184554 5.776660674749628 -1 1 0
229 1 8.831116453007056 13.657626512149127 7.487885380819376 0 -1 0
317 1 10.602582679314862 12.174226035617968 9.284452738203003 3 -1 -4
826 1 10.929855720211831 10.312506409386211 6.791094270363554 0 0 3
1974 1 10.776669362889939 12.44891108204195 6.825630717927063 -2 2 -1
226 1 28.267829486263793 9.339615214935595 13.844364292830635 1 1 1
479 1 14.512079731735012 13.83457373719573 4.645171039407574 0 0 -1
1541 1 13.26915241840074 12.587391531152951 6.357234834282677 1 1 0
1245 1 15.75748283755861 12.724267221761648 6.865004278634095 0 1 0
851 1 14.813978203339383 9.507250117873676 8.829570807464862 -1 3 0
118 1 12.939996976416337 11.232774191991172 8.016308186518502 1 -2 0
1135 1 14.788743841895506 12.05582257471747 9.158231726880622 -1 -3 0
379 1 14.591400042937082 10.469929682302253 6.685490881828288 1 -1 3
1119 1 27.293343910762275 12.9743767360554 10.01057115739225 -2 1 4
108 1 17.292320228745666 12.671465761131916 5.1222666614965675 -4 1 0
1214 1 19.633301268958654 13.784305108201297 5.4287026647171075 -2 1 -2
570 1 18.9466919641509 9.552946828874068 8.861548439049777 1 2 0
2037 1 17.115285636960778 10.326952057786185 5.816052743696135 0 4 -1
1455 1 18.134079359023538 13.794705807445826 7.483858429657425 -3 2 0
1178 1 19.172178102054353 11.598905216973996 7.272978412447554 -2 2 -1
878 1 16.999181229489004 11.074285597894406 8.260298552539304 1 0 0
1831 1 18.8356747469728 12.144564385537484 9.492072147325077 0 0 1
42 1 21.10602193245723 9.109837979905494 7.661034991701174 -1 1 -1
1385 1 20.692579030046552 11.095425062361471 5.256963149968452 -2 1 1
223 1 22.899904725491133 10.478822625288387 6.485324994654732 -1 -2 0
1316 1 23.075427245364693 11.921017673711662 8.69789902061887 -1 -1 1
733 1 28.170008283428125 -0.2246789263581957 4.172096113981523 2 -3 1
2033 1 23.001496446134823 9.664528633246341 9.039902887479931 0 1 -1
780 1 21.754390621408334 12.690011599357154 6.388572871806653 0 0 1
1137 1 25.17245643865172 13.246134921071603 8.74750259524262 -2 1 -1
884 1 25.255832739343717 10.129042371047765 5.820262613502258 -1 0 -1
396 1 24.7482243704183 12.41129850522882 6.425945722986121 4 2 1
1438 1 27.36078335069977 9.632670720432937 6.883078278115554 -1 1 0
834 1 27.18330094062795 11.695262131109107 5.559590747573336 1 0 3
442 1 27.396447867244532 11.794064273394406 7.921882467522099 0 0 -1
1983 1 26.862005730823476 13.866356135446443 5.679145752613033 -1 0 2
897 1 25.140202313742087 10.742636040806115 7.957184978651323 -1 0 1
1844 1 2.026454126205189 0.3310769836592704 11.384986548260363 1 2 0
1514 1 2.3498341859528624 4.041826191292135 11.923669913230839 0 1 0
598 1 2.440639099089403 1.8915927084744744 13.071653745783683 2 0 2
1828 1 0.30629539021978647 2.607650178526118 12.446725979492859 0 1 0
145 1 0.30577515888875006 4.344719349578101 10.883534913444871 2 1 0
1116 1 20.220344844006682 -0.1230705565197141 11.249226159511178 0 0 0
1226 1 3.7299873832414576 2.4010793894957354 10.784332761554014 -2 -3 -1
1862 1 1.9743183741852612 0.058101137113046986 5.23233909923666 0 0 1
1583 1 22.719169972726398 4.862716384613939 13.206133821242805 -1 1 1
1750 1 3.9263457827944928 0.23388018251941023 9.36791092927637 0 3 0
978 1 4.63394469016281 4.2372617121414295 13.259031257177627 -1 -2 -1
535 1 6.44826627337809 1.6691099025333571 10.68846973379126 2 -2 -1
252 1 21.41573338417031 12.525699508699661 14.161958775087564 0 -1 1
1192 1 5.137182575721859 2.011462451050258 12.652090694863515 -1 1 1
1671 1 5.850268835503837 3.827015209503678 11.16443713099767 -2 -2 -2
408 1 8.379142924048413 0.6048744511725402 11.864893139961945 1 2 0
1920 1 8.181824471478043 3.142721856663965 11.427348888441417 -1 0 -1
1802 1 7.045623093801357 4.9279167874065175 13.1189559837259 0 1 1
330 1 25.65073565701769 0.12245871582798701 7.347375073656261 0 2 -1
216 1 9.290110254621128 2.064276345991429 9.512141592301937 1 3 -2
178 1 10.676112657076715 0.8261527936074924 11.2352961375473 0 1 0
1326 1 9.525691793920648 2.0433929214128868 13.462421013154788 1 -3 0
1257 1 10.763614943640135 3.2319889286200194 11.306912018420983 -1 -2 1
517 1 9.340404150110913 4.471962011702703 13.037212554067303 0 -1 0
1335 1 12.126044078673893 2.0486687171387836 12.60619520772312 0 1 0
1483 1 13.295475970083793 3.180705964064786 10.724043785557916 1 1 0
495 1 13.202406258044146 0.7384073442759214 10.55020018613311 4 -1 0
1940 1 15.295151203643925 2.6127484856667316 10.119968458178018 0 1 1
1867 1 14.415330438804261 1.8994787201700345 12.405834280546358 2 -2 -3
1465 1 15.844642641688468 3.794921108122198 11.94984193623289 3 0 0
633 1 12.088605948289285 4.630000082128482 12.756674613097735 2 0 0
477 1 25.65233061466556 12.692472289097562 13.252734976493151 1 0 -2
1038 1 6.789774482625072 13.59266791348339 1.0884561027051636 1 -1 1
1688 1 16.775605313138136 1.393174652217075 11.87971322856232 0 2 2
715 1 18.35231612508133 1.1693453933520126 10.301982995793418 0 -1 2
423 1 17.574729471422025 3.4460866387788025 10.292782246442505 0 1 1
1564 1 22.71346437461129 11.240327095807638 10.825826229249286 1 0 1
1392 1 18.131777097301402 3.1142493278642642 12.550300050793796 2 1 0
1944 1 20.19565718485292 4.748204765131484 11.327728278202262 2 -3 1
266 1 20.34842456259925 2.1976854709934805 11.866078586274583 0 -2 -2
136 1 23.67728427219579 0.9696918619237347 12.965616735592091 1 2 2
1369 1 20.69808080242622 3.9229374728291715 13.48878400075228 0 1 -2
1805 1 22.29850919770658 3.409721102428671 11.03825715547841 -1 0 2
1217 1 21.367557067193616 0.4360767678737848 13.434473982624603 0 1 1
1177 1 22.248918799073316 0.957405833722341 10.873809248891112 1 3 0
969 1 24.304531810802743 3.1412349977602103 13.583269907826534 -3 1 -1
867 1 26.368478425015468 0.8407235910631226 12.10414857230215 0 -1 1
537 1 24.55083418733473 2.4348698969049174 11.125071258920109 1 0 -2
12 1 26.246698982899197 4.190369348805031 10.590978083277344 -1 0 0
1437 1 27.758781004163133 2.12555330685003 10.401560362756385 -1 0 2
684 1 26.68731512702803 2.959772346340514 12.843835511004574 0 3 0
189 1 27.422684906242424 4.880272296848917 12.52385784030149 0 -1 -2
636 1 27.944990294173962 1.219146000262213 13.793745988218344 0 -2 1
1270 1 15.836102556815527 -0.08569151722828416 10.001372223023267 2 1 0
1271 1 3.1703868822091468 6.145799911149559 13.335328780803696 0 1 1
1636 1 0.5799269074452308 5.873428925193365 12.80546511197858 2 1 1
1903 1 1.7116809816923166 6.466145830232611 10.860892047431493 -3 1 0
1949 1 3.6140301141055953 8.316473549070615 11.95150955495614 -2 -2 0
660 1 -0.04553902095615439 8.117776007304391 11.322234578171523 2 -1 -1
1081 1 1.5646096632608315 7.95236701701144 13.17696079470044 2 3 0
1049 1 4.115494005576594 5.654096448026986 11.014838464043711 2 4 -2
144 1 4.706094272756779 7.557414552425183 9.642386991279665 1 2 1
1943 1 5.858320232612026 8.479570477178973 12.09504042519315 2 -1 2
48 1 6.387818200383707 6.169264426359662 10.968626495969056 0 -1 1
514 1 7.016391891182678 8.720357372497766 9.874563437142017 -3 -1 -1
1971 1 5.306019530824924 6.48430275335865 13.4026423230989 0 1 -3
460 1 8.083148762309047 9.512702250380874 12.095395428414104 3 1 1
702 1 0.8002957949240308 11.206403130367201 -0.1414421257328579 1 -1 0
491 1 7.73342201574348 7.193900944446428 12.835543222075499 0 1 2
1030 1 8.637791389571634 5.2635195810551885 10.912486828359938 1 1 -2
186 1 10.417976953456423 6.460621824958782 12.340192224766463 1 -1 0
1803 1 8.979150455432029 7.582699972109186 10.721448281379422 1 1 1
1290 1 11.548040007113837 5.348519083044466 10.642150996012385 0 -1 -2
1585 1 10.24109801069702 9.032597581514336 12.38293577659608 1 1 0
1099 1 15.610667774514404 4.968101036368035 9.745818991500453 2 -2 0
2047 1 12.639906979439225 6.886454234870322 13.019778514851984 0 2 2
671 1 15.212194894499799 7.714436993204689 13.100950005570336 0 -2 1
459 1 11.549596445248998 7.895581258834953 10.761361709492984 0 -2 1
1608 1 13.124473895107243 6.101940100589205 9.34378348650834 1 1 -1
184 1 13.823850421590357 8.402239962568734 10.876473041049213 3 0 -2
1361 1 14.09048734116091 5.252174599227242 11.67180054542022 -3 -2 0
17 1 15.68219288504995 6.756310692430101 11.099572437734327 2 1 -5
1255 1 17.357304140177334 6.918015883763253 9.14573982652535 -2 1 1
1082 1 16.306738508229934 5.519775402116366 13.109446716371222 1 -1 0
635 1 17.7876635648815 5.555845647129259 11.083413553802181 3 0 1
1959 1 19.29558672155907 6.506502941223229 13.336396990021564 -2 -1 2
574 1 19.57165662594064 7.00998575415192 10.419229088839295 0 1 0
411 1 17.56056977781524 7.767386593338188 12.383731849217796 1 1 1