LAMMPS data file via write_data, version 29 Oct 2020, timestep = 300000

2048 atoms
1 atom types

-0.1044728442153442 28.4564728442141 xlo xhi
-0.1044728442153442 28.4564728442141 ylo yhi
-0.1044728442153442 28.4564728442141 zlo zhi

Masses

1 58.933

Atoms # atomic

1579 1 2.8263468287593336 2.832433200988861 3.318499898557632 1 3 1
922 1 1.4860181614157633 1.6396451967864738 1.3481595106403121 0 -1 0
751 1 3.909474044974785 2.226460820380658 1.2745845434695091 1 2 1
1032 1 2.0694073504182766 0.4979490974301528 3.878663761389997 -2 1 1
127 1 2.3144569834870783 3.8659402258511983 0.909821405837834 1 -2 0
56 1 3.2016029437049247 0.011473189335067246 1.900277772418693 -2 1 0
760 1 12.571138793484149 12.261614921963794 -0.07293664154938995 -2 -4 1
925 1 4.3927975603289715 1.0491405837366163 3.8384553139878483 2 0 0
86 1 5.557058492839656 3.1086079926535186 2.6952313955197114 1 0 1
115 1 5.802585796774078 0.7149722711861993 1.5774870695790904 2 2 0
284 1 8.876785097006309 1.053065829508311 1.4158849310851447 1 0 -2
1633 1 7.126249633438932 2.633532759032711 0.9852435250186209 0 -1 2
423 1 7.468619014572228 1.5021550840940678 3.508331292362043 0 1 1
288 1 8.542455024725156 3.8834606737378756 2.5672902149949115 0 1 0
1350 1 9.05309102644492 28.212932831441137 3.729958003623243 -1 0 -1
902 1 10.026521880483173 3.6021243593758547 0.8086162756884837 0 -1 -1
1686 1 11.624224718461527 2.0078457870845443 1.3098622280664567 0 0 2
718 1 10.351313956982883 2.2806914764879433 3.325281623745121 0 0 0
203 1 12.33592780880801 0.8145050323758264 4.056490721078109 0 -1 -2
798 1 13.197784728274163 2.6680446377781357 3.2578810944414323 0 1 2
819 1 0.8692223940670613 4.107021892554494 2.7864721477382672 1 -1 0
98 1 3.7717216662395243 4.9278214095569846 2.5761047026817647 1 0 -1
219 1 2.1438581496489255 6.415845592600353 1.924993898691144 -1 3 1
563 1 3.4770060028006236 7.660720304898066 3.9708972023702724 0 1 0
509 1 0.43165896337606624 6.794054285916529 3.9736498817701325 0 -1 0
769 1 2.3833911275832516 5.3995285578115215 4.3837820005211805 -1 2 1
1714 1 0.16600558509069308 7.548209565963374 1.407298478648471 -2 1 2
418 1 0.6637653727997008 5.152370877966795 0.4477675688221837 -1 -1 1
1927 1 11.867376183671311 26.221892178506696 12.829940284600966 0 -1 2
383 1 6.186124245691312 14.30596339506927 14.073001018085682 -1 0 -2
351 1 5.009885819696011 6.673351970397582 1.8807897522949533 3 -1 3
1202 1 5.266525282810121 4.410849606479389 0.5088358441492491 1 -3 3
1509 1 6.8339436906308 5.434476040867353 2.234935474154999 1 1 -1
698 1 7.874265395056403 7.36732751692918 1.3304119940310786 2 1 -3
306 1 8.270358679038722 4.888755180848431 0.3315293251860304 -1 -2 -1
1278 1 7.9750748625207954 6.33650937875218 4.2208619386633925 2 1 0
1212 1 5.468509325242367 6.223652347246487 4.235641458012759 0 0 -1
1223 1 6.563719620434703 7.984410544920603 3.327411834480972 0 1 1
463 1 13.009797919371984 3.8124068813685033 0.6832909543878771 -1 -3 2
455 1 9.631397592903873 6.02775909244286 2.230737315713022 -1 1 1
298 1 11.558279577451028 4.379443048814243 2.736114083678956 -1 1 -1
1161 1 12.732597106412513 5.347202032013404 4.495159672322583 -1 1 0
867 1 12.299924900816926 6.810042374147027 2.0234538569249874 0 -1 1
1747 1 13.888381827105752 7.641260798387109 3.894416469622645 -1 1 -2
792 1 10.998559406369706 6.821599145749904 4.038566890372718 -1 1 0
1186 1 9.630021624668071 4.750116258009685 4.566874997945745 1 2 -1
1709 1 11.166634891388796 5.796816418681448 0.35305929129257935 -1 0 -2
430 1 13.798196153676942 6.134598650968861 0.1750020327297297 0 0 2
422 1 4.324046828648343 10.72073485686275 0.30021773432701115 0 -1 1
118 1 3.3167384389707775 8.23570624191979 1.140273260208353 1 -2 0
90 1 1.838151812355593 8.825739810689408 3.0738905242811367 0 1 -1
1658 1 1.1985476035237341 11.157208896549735 4.099389695889254 0 0 1
702 1 2.5850568575813995 10.899762538950093 2.2629387253186493 1 -1 0
1611 1 1.3002679608235594 9.541604438979011 0.4465223447682978 -2 0 2
1809 1 4.56598442090447 9.48031488584543 2.954790342281 2 -2 1
1612 1 2.876941141022915 9.676706292369243 4.869179966800494 0 1 2
1457 1 3.490123072788991 5.832385790544622 0.022711153966242903 0 0 0
1827 1 4.776150537950735 28.0281265621555 0.0018631675936903874 1 -1 2
1485 1 8.763913757476343 9.612883906106882 0.6611048985947475 1 3 -1
834 1 7.594663219011204 10.07971426769448 2.6067971183980054 1 0 3
1429 1 5.628383908185238 11.511061785557368 2.064342062472001 2 1 2
393 1 5.984451791420771 8.742342477417857 1.0147072439764646 -2 -2 1
1153 1 9.103552807440986 8.428853961906567 3.230900936798542 1 1 -1
108 1 8.68212617842056 10.95341205733666 4.378438806629363 -4 1 0
1803 1 10.502491582554326 8.013365256896275 1.4876505948651613 1 1 1
104 1 10.140808418172908 10.77471312317652 2.4924285393090604 0 1 1
923 1 12.856872593841398 11.35049176422198 2.351052560214548 0 0 -1
1124 1 13.584440854362741 8.689296287973375 1.339760412037717 -1 3 0
1068 1 11.634520064553557 10.052758960148806 0.5633458902788926 1 0 -2
1486 1 11.893313261873157 9.005853291333462 3.307728034264505 -2 4 -1
462 1 11.570228132370913 11.569584229577785 4.309002945569173 -1 -2 1
1363 1 0.36071223483331644 22.307312811352435 3.9376965790678886 2 0 1
20 1 4.219884622774122 11.990388656262791 4.07920020441871 3 1 1
1568 1 0.3714981135420538 14.942004212422429 2.213930802485751 -1 0 2
1333 1 0.7528086047383087 12.403756282191946 1.5095283241282194 0 0 0
303 1 2.341601249158554 13.264039991284326 3.2796866723233706 -1 1 -1
1001 1 3.355013804542271 15.307998536903908 2.4460256767003834 -3 0 0
1037 1 3.6755374488000117 12.812624157431689 1.3972730778128895 1 1 -1
1225 1 2.0441090053594846 14.346658742223182 0.5452155882212362 0 -1 -2
537 1 1.5070493813765042 15.756502271020091 4.297303087759327 1 -1 -2
1545 1 4.68926780802548 15.214333266686516 0.37063600227066684 2 -2 2
1362 1 8.2178383410636 12.290731701314733 1.7978587970260185 1 0 0
329 1 5.223162950118599 13.98953055987241 3.394904572685206 -1 3 2
1175 1 7.588057620325321 15.683951481559989 0.33165063142930246 0 0 1
1357 1 7.995989986509542 14.780947732736143 2.932828132569377 -1 1 -1
1069 1 6.407842173495171 13.627979861453229 1.3410555939938829 0 2 -2
1160 1 9.17921215929744 14.303562005500678 1.127201484836639 0 0 0
212 1 7.1453763541958795 12.651778001782604 3.8835952186680327 1 -1 -1
1661 1 9.757941257140194 13.133428655295647 3.7761873394532577 1 1 -1
782 1 6.367210090114123 15.362382695493036 4.759439970765292 2 -2 2
730 1 8.721591294303053 16.169884227633815 4.857200466279908 1 1 -1
1901 1 6.20697696272814 16.220892914936417 2.17253368777268 2 2 3
1761 1 13.582821130428744 13.454520969441198 1.8571828647136117 -1 -1 -1
657 1 11.214252874642787 12.747260650431825 1.9295186923697938 1 -2 0
1916 1 12.285683671547469 13.925486157167375 3.9695226005264734 -1 1 0
848 1 10.45768688396114 15.387201619622806 3.0031771939128014 0 -1 0
741 1 11.843262284344311 14.787952158978866 0.9884108179855238 0 -2 2
1185 1 13.184662128031725 15.740992819798882 2.7740186087767125 -1 1 0
1782 1 9.959369268800495 16.308791992681147 0.5955189115041809 1 -1 1
728 1 14.15752077584571 12.20104482496374 4.3362685917862684 0 -1 0
1806 1 4.46355565999113 16.429084847197622 4.102397951912509 -1 1 -1
126 1 2.600710875489253 17.823824740503206 3.2583187255100916 0 1 2
1188 1 0.4753907413680488 19.37536778066485 2.8257567786706 0 2 0
318 1 1.6261645213674771 16.769467653034294 1.507250034064181 1 -1 -1
920 1 2.248239255989224 18.954816539009244 0.997959873471401 -1 -3 4
810 1 4.140757809269763 17.349853016458294 1.4745704779185387 0 0 -1
1869 1 3.054479018695625 20.414021273454843 2.9811160996208756 1 0 -1
502 1 4.5278302034347515 19.729163474084345 0.8627505984393671 0 0 1
399 1 5.054602264813523 18.633334772980493 3.177650267564048 0 1 0
251 1 6.745821388078488 18.547248970007328 1.4015063379508532 0 1 0
1492 1 7.100477148031747 17.579349689116682 3.980743130854348 -1 0 1
372 1 8.301156816657688 19.507859066665556 3.131717358983599 -1 0 2
1441 1 8.544474869418762 17.193696089143536 2.0117794217467946 1 1 0
359 1 14.133044967546615 27.4998975655451 4.401283309559352 -1 -3 -1
1359 1 9.861068656006355 18.826474921189703 1.048306256755668 0 -2 0
1766 1 9.859964181130609 17.964191580844435 3.8898781909996143 1 2 1
1149 1 11.483585020453857 17.3187340907559 2.138893071033178 0 -1 2
877 1 12.48511896295413 19.3962053987157 1.1831829652262644 -3 0 1
1837 1 12.79237224645058 18.614064911513246 3.832820447120351 -1 -2 2
180 1 11.140992494378677 19.865400840529112 2.82736366472304 -2 -2 0
1474 1 13.852628715134953 20.55489875858279 2.86796760373237 0 -2 -1
1314 1 -0.013528901234482901 1.8617618285434911 3.379834342916325 2 1 0
1982 1 1.7673952712865928 1.9128382705610476 13.505604230180573 -1 0 1
1539 1 14.058399134181789 4.895536533192294 2.4826684392829454 -1 -1 -1
355 1 2.92416251042289 22.736248921905545 3.6463886929856764 -1 0 -1
528 1 1.21386680158752 21.367007620709117 1.6061240922802642 0 -2 1
1717 1 2.3938379855149607 23.734748880713056 1.3695412178385258 1 0 0
2026 1 1.6620974151688783 20.547927933079563 4.719229106957217 0 1 1
276 1 0.1866700913964463 3.6861696269448108 13.116230991562658 2 3 -1
1151 1 12.514633547430511 -0.053680333060056686 12.097779855790792 1 1 -1
1019 1 4.572047424359249 22.27730446599804 2.0067197428646866 -2 1 3
1745 1 8.127251155541536 20.47803405384477 0.612498266878868 0 1 1
516 1 6.261304885364768 20.597074852023514 2.5492034209543672 0 -3 0
1213 1 7.505158245123487 22.64398949505929 1.8972166603359724 -1 1 2
1219 1 5.698976575906753 23.46681753020746 3.6062288775768305 0 -3 1
1712 1 9.44767976909647 21.450494422948506 2.200060449993179 1 -3 0
1682 1 8.841880594301593 23.770203327036036 3.528426812896036 -2 0 1
783 1 7.5978554623896475 21.84127870332101 4.122185037727355 2 -3 1
272 1 4.7336214026397485 21.207581373058414 4.28671750307609 0 0 -1
265 1 1.0718087092259803 12.913644524722972 13.959690871412658 1 0 1
1400 1 11.904254495260934 22.3445807108214 2.459086059094209 -1 0 1
1128 1 10.219620235550861 23.85038013701683 1.571922687455987 -1 -1 -1
1502 1 10.338382377900176 22.25562304838447 4.274832538819588 1 -1 -2
1129 1 10.916756381377464 20.95727197166162 0.2766700309623611 -1 0 -2
1428 1 12.93604543628826 24.14145416716036 1.337555122422414 -2 -3 0
664 1 13.58801948738828 21.541353701127267 0.4790275453666486 1 -2 0
1845 1 13.370598373035072 23.219738723447254 3.839080533031071 1 -1 -1
651 1 11.40987136226747 24.95236615758155 3.2606308283223946 -2 0 1
970 1 0.9052574765358254 24.483764769278487 3.3670572494278623 2 0 3
2036 1 1.584047546484629 27.89207570488728 0.33352529575578693 0 0 1
879 1 3.49210713584665 26.426949375232354 0.7032104189224518 0 1 0
361 1 1.0192024493501766 25.744644358104875 0.8715384416456399 0 -2 1
291 1 2.163895417468027 26.82795026534485 2.784753004562898 -1 -1 0
827 1 3.819957115654238 25.09778893764009 2.8796211810770953 2 -1 1
580 1 3.8821824817628103 27.362240746778134 4.306484128041761 1 -1 2
861 1 0.23474881219871285 28.3109731563976 2.1852268640836097 -1 0 -1
1298 1 0.7442793838447818 27.153334049799 4.512637904857363 -1 0 1
1252 1 5.288384546758697 24.603487307515945 1.2979084797224307 0 1 0
1648 1 5.213476029075132 26.966456580944552 2.197557832455055 2 1 -1
1681 1 6.703774792417665 26.35482831633187 0.514150338913865 1 -1 3
11 1 6.975747876481948 25.24992123194684 2.851707179166673 0 1 -1
982 1 7.423996963420891 27.630359725421044 2.1046005661714826 0 -1 5
1347 1 8.43640338169632 24.98704399318623 0.5243548025995608 2 1 1
985 1 6.354269354737573 27.795628002381587 4.334321157475345 1 1 1
687 1 0.4154041775767492 8.922035801259973 5.095170947446469 2 2 0
468 1 7.934794155358851 26.13852899627326 4.780594778493992 0 -1 -1
999 1 5.3434030332381965 25.568883054732872 4.6399258269058015 0 -1 1
377 1 12.410169089325887 27.94704834586976 0.33275825920060176 -2 -2 0
1217 1 13.93757519807512 19.627396765021565 5.33203915158962 0 0 1
1426 1 9.358938718705724 27.490438522382266 0.15121418562650984 1 1 0
438 1 10.808776629735327 28.430936072226476 2.0536757115774233 1 -1 0
152 1 9.309299271184218 26.194956572751458 2.519896467447297 -1 -1 0
634 1 12.456041936078776 26.97027907450302 2.6937717528766605 1 -1 0
1391 1 11.235694555501967 25.96907531113151 0.902597395605105 1 0 0
863 1 13.833281650253543 0.2996615871812798 2.206937197136804 2 0 2
1413 1 0.12675106634814187 2.2302159815650215 9.672849045085178 1 1 -1
1541 1 4.305244336231349 3.9876945062278004 4.802899063642025 1 1 0
364 1 0.448951121084301 0.5911391102086382 5.878332329003845 0 0 0
1368 1 1.6057169150412767 1.89627578272108 7.650836105622031 1 1 -1
518 1 3.1285911406365696 1.5941205192748173 5.7603892758176345 1 -1 1
726 1 1.26819091339997 3.114390309647716 5.319286178248301 2 -4 0
484 1 3.6208349363617303 0.3403419569194857 7.962173543838228 -1 0 0
745 1 2.99988873683381 3.2007863351611014 9.287531342030483 0 1 1
1954 1 4.546157133487081 2.5725059164832627 7.502268057550471 -1 2 2
763 1 2.937330257176221 4.1710841401765775 6.865741827186384 2 0 2
514 1 8.966751625668406 10.289273006429912 13.69047726472105 -3 -1 -1
1184 1 7.816748621708474 0.6309685294926006 5.66904794883931 0 2 0
1208 1 5.894119870005442 2.073648245109547 5.516951185132204 -1 -1 1
1516 1 8.660543787270914 2.7357621827020426 5.371408001407705 1 3 -1
446 1 7.188546191379458 2.891692297828466 7.506322480078609 -1 0 -1
1860 1 6.63642650554443 0.6120564108553244 7.616318789888746 0 2 0
282 1 5.950811570920775 3.6559612681756546 9.325852782026425 0 2 2
88 1 8.519390643099136 4.29835411523652 9.085518639232783 1 1 1
35 1 6.86443069523651 4.095989347213367 4.368739725510363 -2 -2 0
594 1 9.094368880032288 1.429397890113651 7.56368733248881 2 -1 1
628 1 11.767039660185644 3.166588444826368 5.158072379862974 1 1 0
850 1 10.544598156268316 1.0868432061837372 5.649126822649768 1 0 0
1340 1 11.787794339765352 1.9386361265826428 7.523470976826341 2 0 -2
1290 1 10.166978893103794 3.390474738857404 7.034528728334711 0 -1 -2
1690 1 13.463638645573635 1.5309274550062424 5.7916332239814965 1 -1 0
5 1 13.411182430718284 3.0450276428930336 9.179216559861455 -2 0 -2
429 1 12.994679168305584 4.105994212689954 6.818945539396771 0 -1 0
333 1 13.863390390905414 0.33307826679644226 7.868642081694414 0 0 1
464 1 0.8863499936386097 5.441164845129494 6.265244316112472 -1 1 0
1233 1 1.9114763012440479 7.388324678105146 6.0339030786643635 -1 0 2
1862 1 2.4166013578285432 6.434609650137418 8.14094616406124 0 0 1
1946 1 4.084177841905132 6.393688396031001 6.261296900435369 2 0 1
2035 1 4.423915556970473 5.292250956031546 8.373925291862513 -2 0 -1
930 1 1.105084776046948 4.48036010584452 9.035805721268114 -2 1 1
1071 1 0.42911969373413805 7.7746597245435085 7.5717319254927125 0 0 -2
817 1 5.156746149547342 7.676081365441782 8.16435750802597 2 1 1
555 1 5.886739263010498 4.868302552877865 6.467186417409282 1 -1 -1
129 1 6.660829151879507 6.996169676038138 6.177077269566174 2 -2 0
273 1 8.357721489875638 5.26753822391533 6.49320660094557 2 0 -1
1919 1 6.85042076474055 5.972633401080883 8.390273047352231 4 1 -1
162 1 7.841581863322671 8.301728238582237 7.966799470696328 0 0 -1
521 1 9.25328558733824 7.5876600170027 6.101443181102005 1 2 2
859 1 11.581569325120741 4.478661736295061 8.859498223235171 0 1 -2
977 1 11.063883465104704 5.652859600870224 6.4354397709291495 -2 0 3
491 1 9.772777197667745 6.491823091246503 8.249315993477136 0 1 2
394 1 12.687089466902588 6.455491349036518 7.9436104536363565 0 1 0
2002 1 12.384275350765858 7.901505650760001 5.781790368651002 0 3 2
1021 1 13.712947569598057 11.475469805596967 13.815190487290696 0 -2 1
914 1 3.238137618195511 8.945123549276758 7.180073926423542 2 -1 0
1830 1 1.143214036893082 10.234119680165614 6.878342604620262 -1 -1 1
2030 1 2.97881748634331 11.09112603625292 8.320568406868682 1 0 0
1785 1 4.426110911835075 10.957887881460932 6.460362438010756 -1 -1 1
1854 1 5.143357005250149 10.006525746678086 9.162890538234342 2 2 1
1284 1 2.351035196806088 12.486266903749202 5.814956373771101 1 0 3
376 1 3.2924552104659726 24.30660614567877 13.50791218886803 -1 0 2
460 1 1.522306437470269 9.14066785700582 9.260126734757526 3 1 1
1394 1 6.040488983706522 10.566244515956768 4.568338192999495 0 1 0
631 1 5.0473774913996925 8.590030861540031 5.464205795703251 1 -1 1
1906 1 6.145409891014865 9.74732705954977 6.875824947311752 2 0 0
466 1 7.649506024823981 8.880453415862577 5.211139232684574 1 2 0
1179 1 9.073024462137889 10.25753235871977 6.8991131256993015 -1 -1 1
1055 1 7.118724317678276 11.797483027873508 6.296612412306834 2 -1 -1
1243 1 7.506630277524007 10.349322841852544 9.050678992586407 2 0 -1
1326 1 5.840083162413341 12.048887433949536 8.245330599715968 1 -3 0
895 1 6.927421272833952 10.998318264143792 0.26839465516340183 1 -2 2
773 1 10.610571974793586 9.659815741182264 5.081633193284876 0 -1 0
944 1 10.704839368125642 8.698076853065675 7.600297760977643 1 -1 0
860 1 13.23844958934524 8.969499767070772 7.839253574584032 0 -2 -1
22 1 11.735875699710286 10.974513717872497 6.8948450622330615 -1 0 -2
805 1 13.346322055002048 9.92899398067369 4.865182495162711 -4 -1 0
776 1 10.260491186828267 11.25898809672504 8.93639849345243 1 -1 -1
583 1 12.407258235419773 12.258510428658962 8.797294283259093 1 -2 -3
1411 1 3.6197561274243633 14.534736277656961 5.204666315023868 1 -2 1
1438 1 0.5423666409340601 13.811789431851654 4.641094414553595 0 1 0
136 1 0.8455634930944619 12.702576350609787 7.832612642051038 2 1 2
387 1 1.9410357614560656 14.699287284760144 6.830736470380335 0 -1 2
729 1 3.789318902589698 13.382188495430862 7.7371028347808375 1 0 0
581 1 3.133528957814175 15.873671975691405 8.638436127257075 0 3 -1
1305 1 0.620724650866005 15.006740307806597 8.735391830908432 4 0 0
1247 1 0.039116284341826846 23.251186481182668 1.4097319594392594 1 -1 -1
1776 1 4.840055133227467 15.730046489793844 6.783249629683676 -2 0 -1
683 1 8.645455816822542 12.692927049244485 7.967150471465294 -1 0 -1
188 1 8.288388039903055 13.728040317870056 5.549709497992526 1 -2 -1
1026 1 5.360933670193751 13.225647819492172 5.862851582510228 -1 2 -1
371 1 6.921256695132156 14.128039916516551 7.144743482964265 1 -1 1
1965 1 9.484871333326982 15.170920333625093 7.3060295921420195 1 1 -1
685 1 7.301772315031774 16.323849632158584 6.9199109532114775 0 -2 1
1737 1 9.822038199282664 12.137312558826494 6.016531712867323 -2 -1 2
1734 1 10.47836301713909 14.540504848349142 5.3800470340216755 -1 2 1
1621 1 12.687523901918844 12.634607657056659 5.9555358072047095 3 1 -2
1569 1 13.54352980823531 15.00973175194587 5.744497654576116 -1 1 -1
1323 1 11.575457221435705 15.659939103247721 7.515148442117705 2 -2 -1
1023 1 13.73958480043789 14.158748618010836 7.95909331806787 3 0 -2
1685 1 10.942336141839952 13.342194068133802 7.581482193565332 0 0 0
1656 1 10.070763135151763 16.10478861966059 9.617093939842746 1 -1 0
1657 1 12.093024471855143 16.37694244260151 4.77075007848068 1 -1 -1
840 1 3.483856955157443 19.289886224068624 5.0750658235453985 1 -1 -3
445 1 0.9431332582910461 18.12595788738063 5.0621055526837555 1 -1 1
1130 1 2.8748303670716675 16.94243446209455 6.392988914685843 0 -1 -1
416 1 1.1497586261360582 17.46658047683099 7.9900135211332195 1 -1 -1
213 1 2.0702032233334022 19.482173993434778 6.988548847869062 1 -1 2
627 1 0.8996791901698036 19.965063548763474 9.250252764122326 1 -2 -1
1215 1 4.062880340868542 18.08992561723388 7.793316711274727 2 -1 -1
629 1 5.585945949741504 16.518693170664484 8.73299300027607 2 0 1
451 1 6.4224780333038 19.85911209128978 5.286861975084855 2 1 1
1419 1 5.3229055235161296 17.887258997805553 5.788490132593355 0 -2 0
938 1 6.7896533578295974 18.587693475408617 7.831519082501137 1 0 0
736 1 8.195163827309713 18.522283403371308 5.819819315901865 0 -1 -1
79 1 8.85046472118201 17.661831230830945 8.218219355468959 2 0 -1
1281 1 5.104832348596093 19.87793381044587 7.246390612639897 -1 0 0
1938 1 9.479008135518766 20.38216279302728 5.061889688405326 1 -1 1
804 1 8.253564156237509 19.764268039423218 9.352449119748453 -1 -1 -1
610 1 13.181112153309241 16.304761225800963 9.622289096945638 0 1 0
917 1 10.206732650977369 17.41851088576428 6.335993310921618 1 3 1
1339 1 12.914765352476296 17.656498904172835 6.55108660592803 0 -1 1
540 1 11.26052615557846 19.08829560196502 5.573574934619413 1 0 1
314 1 9.862722307959855 19.754997500442244 7.560459420646271 1 1 -1
1697 1 12.41709532274089 19.77598397272243 7.411753425220942 -2 -1 0
1145 1 11.390943870747842 17.888724922475664 8.586674130827783 0 0 -1
340 1 10.990022022847489 20.100414132770233 9.396623761658875 -1 1 1
1158 1 0.1149006892291011 16.15920932471322 6.080198924255911 -1 0 2
163 1 3.516842213645893 20.19891656378941 9.087465270066296 0 -1 -1
1114 1 0.5019782610782011 21.21641743534196 6.511133317782106 3 0 -1
1807 1 1.3330040689033966 23.23110370449057 5.780697312892999 2 -2 -1
625 1 3.236847749206565 21.372800887783516 6.226579214896544 0 2 0
1312 1 1.7280259177607666 22.373972383879853 8.527961495361954 -1 2 1
1867 1 3.9162871752049027 23.753077097557448 5.624874801030306 2 -3 -3
1159 1 2.7061680572186835 24.408393424295074 7.524233208517403 2 -1 -2
875 1 4.398768420580903 22.31792153271541 8.141900294740292 -1 -2 1
157 1 12.531309379267224 7.194422822084796 13.901120703709275 -2 1 1
40 1 7.783996985439942 20.648811384324652 7.073262486897535 1 0 1
1051 1 5.765065222873473 22.216362230942696 6.202232231564048 -1 0 -1
595 1 6.274763102354464 21.248822921696366 9.00019176631355 -2 2 1
1577 1 7.308643389967161 23.159066695452804 7.963429099198228 2 1 1
1390 1 8.830204469994431 22.77336886372618 6.13374522180492 -3 -2 1
1744 1 9.535780714395548 21.928578141079107 8.403382353559577 0 0 -2
1286 1 12.280997704239189 21.09774460211586 4.706029421023692 -3 -1 0
743 1 13.489989237806405 20.822277662970485 9.11721391047105 0 1 1
206 1 10.334181963309183 23.84244201865809 7.524506243594382 2 -2 1
961 1 11.937067307765904 22.390703894066075 8.356283370935248 1 0 3
1550 1 10.973220350528502 21.64124984149862 6.659239026182123 0 2 0
814 1 11.745989908062754 23.810619512234087 5.592244898154121 2 0 0
1990 1 13.295128738954705 22.307986988302606 6.715870787858345 -2 -1 0
1825 1 0.8020926092285156 28.13865026592709 8.03990299848072 -2 -1 -4
1914 1 1.0133517611681289 25.72663943790554 6.9736539043039745 0 -1 2
194 1 2.3065752337137546 27.7915666506392 6.250900275383631 -1 0 0
1915 1 2.3770816860882173 25.553488871692874 5.072162368022587 -1 1 1
222 1 2.443100330548474 26.987715651683136 8.66334841328147 1 -1 1
1383 1 4.002871516848135 26.15421992142569 6.774011969856523 1 0 0
1796 1 4.725537544728824 -0.10090185677863772 6.102914368865025 -1 0 0
750 1 6.959471298586045 23.98979807924881 5.419437370742203 0 0 2
278 1 5.549032515900424 24.596325467837442 7.460914817467403 0 -1 1
192 1 6.549713245701088 26.822413378873534 6.6340038825571686 2 0 1
772 1 5.218776674988694 27.433996118403755 8.56194057012455 0 1 -1
315 1 8.101927807689181 27.72363082505509 8.514602866164223 0 0 -2
1163 1 8.295364792743358 25.17556916250752 7.164593492369482 2 0 -2
1407 1 7.06083199379451 25.54343986975977 9.177813987741457 0 -1 1
1319 1 13.263784524841286 24.558134983595558 7.306509689877272 -1 3 -2
846 1 10.942574976657294 27.035946459181094 4.372839548369798 -1 -2 0
851 1 11.010198654169422 -0.025870536168048117 7.985416825195847 -1 3 0
984 1 9.307195542753906 27.41667312763846 6.314234372388817 0 1 0
1182 1 12.917359930457582 25.82791115533649 5.0995681368105 0 -1 2
1775 1 9.952095356874237 25.00901080140264 5.113295776558817 -1 1 3
1652 1 12.443718769341558 28.022346396562316 6.217078468802694 0 3 3
178 1 9.892130747543519 26.335723265184672 8.71182065300059 0 0 0
1118 1 12.892827425224764 26.76487039264254 8.128992398883506 -1 1 -1
2025 1 11.124526158345239 25.92840505594542 6.903614793391304 0 -1 -2
134 1 11.857487587641979 24.938561226927572 9.248808110381963 1 -1 -1
1593 1 0.3721396910852145 9.467679210229498 11.257965713526179 0 1 2
1077 1 7.373424604560095 0.2626205357453797 -0.07447144796816084 2 2 -2
1105 1 2.364847466785954 0.9265372415151709 9.771533868584408 2 2 -1
1033 1 1.5355180838286984 3.0625444693189277 11.17135613731518 0 2 -1
1671 1 0.6982614509086388 0.7436496375730934 11.64804896666478 -2 -2 -2
1496 1 3.4175313485091383 1.7744041420058494 11.578180514439524 2 1 1
826 1 4.47715037902374 3.954480283844944 11.142871227840374 0 0 3
1336 1 5.045252632527087 1.5682111181241538 9.791001957795261 2 -2 -1
1399 1 7.713994461439626 1.545221242527965 9.60318502307924 2 3 1
1774 1 4.774175908683887 2.6675038072689716 13.409425462159373 2 2 2
492 1 6.426519244896219 2.163266771643537 11.603981590369532 0 1 -1
1257 1 7.691329470010642 3.070901196519719 13.158891815762457 -1 -2 1
302 1 8.279402494589016 0.7415122107955374 11.920308516797812 0 -1 0
1708 1 8.997910858909776 2.949638165487063 11.285107858734243 1 1 1
1989 1 6.492719368375199 0.9876966735952724 13.880684346661335 0 1 2
1711 1 5.178661376667221 0.05339464626167728 12.28519300056425 -1 1 1
1030 1 10.231751220100469 2.63756793508133 9.341183852603583 1 1 -2
727 1 9.76455424124537 0.06753621218105199 9.73656389167567 0 1 1
1780 1 9.668627787953701 1.6339766304188414 13.834495844899177 0 2 0
577 1 12.02931880083019 0.8857107067808573 9.944771455641447 -1 0 0
1152 1 10.58939252246888 1.2004935920771933 11.591779995952603 1 3 0
1894 1 11.854481091395337 3.3734184930801963 11.019144366384872 -2 1 0
66 1 12.404823279280013 2.233110961305555 13.58176525044409 -2 0 0
168 1 10.4529866758745 3.621597738301697 13.074807903518497 -2 1 -2
559 1 11.255347509432683 10.989587316108487 13.648242344256477 0 0 0
1280 1 10.225407241055354 25.24885121331094 11.227226771669294 1 0 -1
1638 1 2.8265517200249506 4.0991976855613546 12.968071809831278 1 0 -2
723 1 1.1321520741454907 5.620108267055377 12.333506572188115 1 -1 1
1228 1 0.7378331082556661 6.888817503590535 10.10110441554793 0 0 0
12 1 2.5723044941186384 5.354007414130573 10.48640919651106 0 0 0
420 1 3.8176960373585005 6.226361951332193 12.54511428113268 0 -2 0
103 1 3.4114414490152543 7.7534491948898605 9.7292379835079 1 0 -1
1828 1 2.214113547302416 8.018238288416187 11.60445855564493 0 1 0
1651 1 0.7914058614719892 8.568070796696748 13.699453533403398 2 -1 -1
232 1 8.817658186947693 25.712881940902598 13.260297504698892 1 0 0
1224 1 7.151808063603394 4.646296038611285 10.89076253030688 -1 0 -1
661 1 8.484205969080993 6.74099191255874 10.057078945497757 1 2 0
526 1 5.312766832525693 6.199928506029583 10.316376783803328 2 1 0
60 1 6.066818785743901 4.834505567216821 12.712679733074742 1 1 0
1939 1 6.674059622490897 7.130722999072147 11.807119059890564 -1 -1 0
1575 1 8.635623252386369 5.378912552507528 12.35891863417103 1 2 0
693 1 8.239201589718164 7.974260448072052 13.514665672131951 1 1 -1
1540 1 6.4869331144458595 8.220434182848306 9.859385562991749 1 0 3
912 1 5.574969041699862 7.1224147174887555 13.886581180124184 0 1 2
843 1 9.846984442775303 7.352996450130547 11.796874705323503 -1 0 2
1853 1 13.547520242978415 7.874560640469947 9.844889282135775 1 1 1
1039 1 13.388675416139657 4.382206164497309 12.655636673518046 1 1 0
1678 1 11.218356761206561 7.071570572057455 9.938758936487238 -1 0 0
838 1 13.117443993920324 5.316608646293164 10.287800247028775 -1 0 1
1517 1 10.178320651958497 5.036072971569366 10.559028413007168 -1 1 1
1535 1 11.720878800939563 5.663800514015807 12.228625576807776 0 0 -1
289 1 13.867860774811465 24.496713250056587 13.19141889857846 1 -1 0
832 1 14.15701958355092 10.404629657123117 9.953318231925916 2 0 0
1099 1 1.243207310724433 11.639464877765148 10.182109159332848 2 -2 0
174 1 4.361057322522454 11.06243798349434 12.67242005402024 4 0 -1
1210 1 1.8783408484714024 10.399678156255726 12.870018106984515 1 0 0
1859 1 3.2803214949576596 10.093718672414004 10.715434930705202 -1 -2 -3
1917 1 3.6567206292880448 8.802704067075043 13.571161937503105 1 -1 -2
1565 1 13.982861624883471 26.36894987156665 0.8301587762026289 -2 -2 3
1344 1 4.185779568345232 12.339247302104736 10.30112875540732 0 2 1
552 1 4.686690755987902 8.487696812693938 11.44233222468251 -2 0 -1
435 1 6.4064410087453 9.329714063954269 13.23220829832486 -1 -1 0
1328 1 6.0717248031742415 11.106746238357575 10.962386338406944 0 0 -2
660 1 7.9230644878533205 9.206711998056281 11.278110360983874 2 -1 -1
833 1 8.613686192176173 11.554841580416126 10.85064354169619 2 0 0
13 1 6.661922384057806 11.917784910523112 13.0853825439113 0 1 -1
1239 1 9.476045147955265 9.022649304615442 9.52191619308095 1 2 1
1536 1 12.236621177495673 8.103703203627756 11.775018322398765 -1 2 0
1735 1 10.217431147273492 9.769978009055006 11.660173144014738 0 2 -1
433 1 11.856314918003957 9.392160157356088 9.813016234356905 0 1 0
495 1 12.68953078286702 10.499740034093264 11.728586059801037 4 -1 0
1361 1 11.0563097607842 11.93269253640043 11.043559974851817 -3 -2 0
1950 1 3.3782290628666996 21.65648647158271 -0.0038951291776434527 1 -2 1
74 1 12.909651911533333 16.78115292403173 0.4113125733347459 0 -2 0
1515 1 14.13225811959847 6.617705404105066 12.06213841125543 0 0 -1
1493 1 10.017865642477023 27.771162603996125 12.547165528835958 -4 -1 1
1959 1 -0.054562864638880285 11.906849438149864 12.003494592110366 -1 -1 2
1512 1 2.221646439713213 13.639839523898429 9.623933947429565 -3 0 2
39 1 2.504630545181769 12.48115442176839 12.040507457281926 -2 1 -2
573 1 1.6085467036875247 15.376569194207573 13.263926396246298 2 0 2
2019 1 3.3718368896138076 14.612253850407344 11.439183111835929 2 2 1
1398 1 0.642847124627535 14.181014694802572 11.562768270602614 1 -1 2
880 1 4.518878813789424 15.77956993092062 13.027837941374667 1 -1 -1
173 1 5.184331824240033 14.380022067158956 9.385830754729103 0 -2 -1
1408 1 7.003186219259475 27.33644768408025 12.75841971992259 1 -1 -1
989 1 7.742859232407439 15.407637031114273 9.192914039245892 1 1 -1
619 1 6.925452928501365 12.982618076467203 9.887733213339772 1 -1 2
1724 1 6.331875054094656 15.561942574659376 11.109504564330608 0 0 2
908 1 5.296833925119226 13.3997975058528 12.049806141858785 -3 0 1