LAMMPS data file via write_data, version 29 Oct 2020, timestep = 300000

2048 atoms
1 atom types

-0.09090490957937014 28.442904909578225 xlo xhi
-0.09090490957937014 28.442904909578225 ylo yhi
-0.09090490957937014 28.442904909578225 zlo zhi

Masses

1 58.933

Atoms # atomic

1579 1 3.109810495823787 2.8596073849451398 3.118164314966729 1 3 1
922 1 1.8817136666383927 1.8876457693396638 1.27871569603433 0 -1 0
1032 1 1.7785216128330135 0.6156981167778042 4.1237994294464455 -2 1 1
56 1 3.6527079101416806 0.31380191673647034 1.866621846048341 -2 1 0
751 1 4.72917701538416 2.2722944344702403 1.3793201629817184 1 2 1
925 1 4.775589811572917 1.2839019925755348 3.8247053070424353 2 0 0
1989 1 6.567260495635764 1.0060305663307785 13.81544255939853 0 1 2
127 1 3.0535085569840854 3.943088583116767 0.645149545296554 1 -2 0
86 1 5.853683667747448 3.385946483531926 3.0804108372036234 1 0 1
115 1 6.451839861549966 0.6728051641863685 1.9794514336688387 2 2 0
1633 1 7.352388892265615 2.821994027738974 0.9371781894570006 0 -1 2
423 1 7.3279525826559695 1.8856106134573734 3.835058211626946 0 1 1
284 1 8.982135233112777 1.3602344515276428 1.7955366574353542 1 0 -2
165 1 0.0862888809387092 24.85092651304962 5.293683641686603 0 0 0
902 1 10.131972700394387 3.7132475915028733 1.0347874097984382 0 -1 -1
1686 1 11.720253815912073 1.7864360758767646 1.4911439149738943 0 0 2
718 1 10.2948330458834 2.3552739831613962 3.6241647895431504 0 0 0
203 1 11.865947872811239 0.685594987655192 4.156776385197278 0 -1 -2
863 1 13.399490999175963 0.06944012436599728 2.1000995974286676 2 0 2
798 1 13.382368116776567 2.6097552402073303 3.318056383186464 0 1 2
463 1 12.820942380438256 3.920368763316737 0.9675205478032458 -1 -3 2
628 1 12.001496786466815 2.872310624829407 5.050109329664219 1 1 0
819 1 1.409136021757487 4.406628540026179 2.4154870574275984 1 -1 0
98 1 4.051437959536259 5.03562487210106 2.584997059716785 1 0 -1
219 1 2.2099482606827148 6.533493859384652 1.8973014590107988 -1 3 1
563 1 3.5398954838160672 7.389992474377822 3.667634382132865 0 1 0
509 1 0.6152429789921686 6.6399375396864695 3.4556665759 0 -1 0
1714 1 0.5102270370833443 7.7798559563485 0.999836127742485 -2 1 2
687 1 0.05103264926398271 9.34279675217979 4.559656964325205 2 2 0
121 1 0.010560900090929304 25.082070688539716 11.404083379355773 2 1 -3
288 1 8.605503206144137 4.035401157327655 2.9756285113046386 0 1 0
351 1 5.076605962193607 7.051445861619426 1.7095837438485444 3 -1 3
1202 1 5.499922073663573 4.62567919302352 0.6056989552844612 1 -3 3
1509 1 6.861793569267499 5.58379964188387 2.3733012624123817 1 1 -1
698 1 7.768566836622942 7.688305255517569 1.6136266825445675 2 1 -3
306 1 8.030088669916752 4.907802245159936 0.5368599088314987 -1 -2 -1
1212 1 5.575833793681393 6.039322778227658 4.455782550072128 0 0 -1
1278 1 8.03353069645146 6.5523948885205145 4.196115068547197 2 1 0
455 1 9.661151229905402 5.911252661071409 2.158626620392193 -1 1 1
1223 1 6.206491773558323 8.13629449834667 3.4670211718932027 0 1 1
1840 1 0.18807642573441008 5.006357204880468 10.694059049803686 -1 1 2
298 1 11.31445210157903 4.372685688874204 2.835259820726951 -1 1 -1
867 1 12.630192262156779 6.273808357960585 1.9786472258569385 0 -1 1
792 1 10.730085630467153 7.072108122144808 3.777540758453246 -1 1 0
1161 1 13.582830701247644 5.054770066877071 3.6592259859652514 -1 1 0
1747 1 13.079106915651277 7.824549005896123 3.797749604601628 -1 1 -2
1709 1 11.050338857250132 5.728952537906988 0.26170176211749596 -1 0 -2
456 1 14.001279920335168 8.449658870445706 6.3381844709051025 1 -2 1
1611 1 1.4589180171214533 9.954876154180637 0.25217025422166456 -2 0 2
118 1 3.2511028011694427 8.540459837225622 0.8967739446134516 1 -2 0
90 1 1.5365323857772768 8.825348190861426 2.88224376391355 0 1 -1
702 1 2.502011506252478 11.016077405137942 2.205940453025845 1 -1 0
1658 1 0.963605426653801 11.298769011856963 4.138599292775026 0 0 1
1809 1 4.172384311674162 9.524297727488532 2.8923185123408897 2 -2 1
20 1 3.972760870944951 11.875934020221969 3.950277640478512 3 1 1
422 1 4.248587531591434 10.703295474960777 0.3041782497860502 0 -1 1
1153 1 9.084459690187515 8.513610290821322 3.1845626374905796 1 1 -1
1485 1 8.732623843309264 9.83809914590222 0.9384331847365983 1 3 -1
834 1 7.2175704223495 10.225726754667951 3.0677853129843906 1 0 3
1429 1 5.379252475291101 11.696870524453496 2.1768053613048837 2 1 2
393 1 5.942768570960347 9.242566814397943 0.8303798908974868 -2 -2 1
895 1 6.886638505247625 11.231857240427868 0.4339950012323527 1 -2 2
1362 1 8.205636884856217 12.379742898339732 2.004715966012208 1 0 0
1803 1 10.776957268088509 7.867462064724783 1.5663107169471684 1 1 1
104 1 10.017340512553842 10.999936941950628 2.721676906218841 0 1 1
923 1 12.764714150871933 11.449880589692205 2.70946148361714 0 0 -1
1124 1 13.171963290747405 8.939568098817508 1.2652638890679944 -1 3 0
1068 1 11.367732017213044 10.404269084394251 1.019454977855329 1 0 -2
1486 1 11.530951929055192 9.454676799878248 3.3870970654551678 -2 4 -1
1950 1 3.579059015395554 21.73115171253331 0.15883125984210036 1 -2 1
1402 1 11.735784364582154 27.21334861674638 10.473929207568691 2 -1 1
1314 1 0.059187253638194826 2.1946927251736876 3.1047173280541998 2 1 0
1333 1 1.1002145217174537 12.47782863588979 1.3221323648571843 0 0 0
303 1 2.1562278884825066 13.361089680758687 3.3014181375667575 -1 1 -1
1037 1 3.627553344283517 13.289667970818144 1.208024220835235 1 1 -1
1001 1 3.0121150288059866 15.888184319378405 2.253107741631508 -3 0 0
1225 1 1.7369256604227261 14.683109074052753 0.7466020091169968 0 -1 -2
1568 1 0.13060331114792983 14.852845803478473 2.5933379538982595 -1 0 2
537 1 1.563758461681849 15.908546272169394 4.17404340933805 1 -1 -2
1545 1 4.514587887331886 15.396533320346311 0.20674055466232655 2 -2 2
329 1 4.635414571030896 14.309048138104572 2.9379652356011805 -1 3 2
212 1 6.441844770342381 12.79952065703294 3.88522828879566 1 -1 -1
1357 1 7.4055763794659555 14.772759600941207 3.051634597983726 -1 1 -1
1069 1 6.150515861052007 13.824233712971592 1.332574924562142 0 2 -2
1160 1 9.115743575960579 14.334715981211929 1.2687246766821545 0 0 0
1175 1 7.175661305768877 15.771157008000264 0.27686489605390274 0 0 1
1901 1 5.629546586452465 16.516910462454796 2.091298752151705 2 2 3
730 1 8.729142055695275 15.473845114609174 4.891773547294442 1 1 -1
782 1 5.946615711973923 15.11947025700548 5.046054589434401 2 -2 2
1661 1 9.139681635840176 13.345056138626463 3.8689257249968927 1 1 -1
657 1 10.865370308361591 13.250517318448045 2.1266679312146652 1 -2 0
1916 1 12.280190898612846 14.033695653519851 3.89626209337204 -1 1 0
848 1 10.10052871868174 15.432303188837617 2.903698201196318 0 -1 0
741 1 11.793890967407958 15.046530537273133 1.0348808697961636 0 -2 2
1185 1 13.377981586199596 15.887698016135802 2.617928583250335 -1 1 0
1761 1 13.585566906199976 13.703057512854386 1.9276873256475553 -1 -1 -1
920 1 2.3083046657951414 19.371714029786418 0.9015005980503934 -1 -3 4
126 1 2.3305764057321565 18.171412474126207 3.6185095923899424 0 1 2
1188 1 0.5923001743905786 19.926548998953265 2.981919446016382 0 2 0
318 1 1.0695153639423958 16.929915560906657 1.650125082475903 1 -1 -1
810 1 3.9564420453603955 17.950188295745164 1.4913997220067194 0 0 -1
1806 1 4.017706568265374 16.640473744476175 4.261865505171465 -1 1 -1
1869 1 3.723489536951925 20.26143547846955 2.617397000382759 1 0 -1
1593 1 0.13570736770994893 9.565394340396569 11.176745411779992 0 1 2
502 1 5.00000223164335 20.144715751394166 0.5826213064105406 0 0 1
399 1 5.347712363274344 18.742011891878214 3.6665838173230707 0 1 0
251 1 6.655145629738577 18.473496178599945 1.3309146717208507 0 1 0
1492 1 7.040837856438014 17.00404970758281 4.011596686097753 -1 0 1
372 1 8.08954092059533 19.19510882594787 3.2284629999650805 -1 0 2
1441 1 8.391471443735801 17.049431762356868 1.9835642810517418 1 1 0
1359 1 9.35680067041606 19.006072182636345 1.1984518046731332 0 -2 0
1766 1 9.88246079062767 17.903895815680706 3.799192248153453 1 2 1
1149 1 11.11802964121131 17.373892455613934 1.8388084646711267 0 -1 2
877 1 12.491976428898141 19.541999718496193 0.9404812877328446 -3 0 1
1837 1 12.916355384021491 18.14675892807069 3.295849376017762 -1 -2 2
180 1 11.17022470882806 19.854125933122333 2.980668456782269 -2 -2 0
1782 1 9.585776971688448 16.18502114425184 0.2618616448427751 1 -1 1
355 1 2.9522983039207253 22.922747944422163 3.9673411211650835 -1 0 -1
528 1 1.7822299420213397 21.87429770373018 2.0869499611344082 0 -2 1
1717 1 2.6221812833594536 24.23113882253584 1.5978885900624284 1 0 0
1363 1 0.2468869350640157 22.078981636368333 4.05791324517231 2 0 1
752 1 0.3233073804798522 21.096720914643996 0.3953513878288286 -1 -1 2
359 1 14.168991287677356 27.44314957685947 4.360849814661455 -1 -3 -1
2026 1 2.1705385868203195 20.669585542547125 4.606448796099051 0 1 1
1493 1 10.361965978954018 27.483248742396313 12.45860976493564 -4 -1 1
1157 1 11.564678045315354 15.481060939264035 14.12911012563361 1 1 -4
1019 1 4.4912195768081205 22.619077751492235 2.2965625856328584 -2 1 3
1745 1 7.435832632422185 20.688307843931817 0.5838225573380551 0 1 1
516 1 6.440846499940639 20.85104283416804 2.559870889576309 0 -3 0
1213 1 7.511399826436142 22.80693268928772 1.6198889709515203 -1 1 2
1219 1 6.1701446411940255 23.291344169528443 3.6434078524116056 0 -3 1
1682 1 8.848222936696173 23.67889023655559 3.437258694833295 -2 0 1
783 1 7.92692923397027 21.57704207268906 4.579802789264403 2 -3 1
1712 1 8.972443830857554 21.028500929897497 2.406344122819828 1 -3 0
272 1 4.772657886823749 21.250605657316335 4.561920762310103 0 0 -1
1252 1 5.564008120688755 24.672893225282664 1.4440200200737838 0 1 0
1092 1 5.946797628227465 22.576534348337844 0.0647465850616824 -2 -2 0
664 1 13.307391702525907 21.513108342293712 0.2780024088444373 1 -2 0
1400 1 12.041069386356334 22.223766239539792 2.3841758861408335 -1 0 1
1128 1 10.008878077579036 23.187554511360048 1.495374269068265 -1 -1 -1
1502 1 10.504835748830207 22.132635085361393 4.238305802346261 1 -1 -2
1129 1 10.53601584101817 21.086249191430483 0.4162798326272158 -1 0 -2
1845 1 13.744130629911064 23.109643314416786 4.092814155553499 1 -1 -1
1474 1 13.763915188603958 20.431304476110654 2.7112019274724024 0 -2 -1
1428 1 13.01989652785379 24.40582245522733 1.422919642963139 -2 -3 0
970 1 0.8783887675104295 24.250334980313554 3.0830261464722053 2 0 3
861 1 0.6377673145478561 -0.060935259391243335 2.0238982835154724 -1 1 -1
827 1 4.1837538622511925 24.78367889287467 3.316233286467318 2 -1 1
291 1 2.4742756764429195 26.505914106459493 2.652838029853439 -1 -1 0
361 1 0.755180698130172 25.567350908827052 0.9431769897282207 0 -2 1
879 1 3.6932532488398633 26.203019094646017 0.6898773671251489 0 1 0
580 1 3.685723880953287 27.807451744759838 4.377367672180546 1 -1 2
2036 1 2.0895822344637027 27.938416744367053 0.23186508872200712 0 0 1
1298 1 0.8800637597134515 26.892966490312887 4.4783704609039425 -1 0 1
1827 1 4.738130734660593 28.341615956755405 -0.011742724416905492 1 -1 2
985 1 6.179367752205782 27.894949991746287 4.263961920545301 1 1 1
1648 1 5.129208424118534 27.035336641776148 2.2626941178323663 2 1 -1
1681 1 6.931847445696667 26.767367978193057 0.8453766297103132 1 -1 3
11 1 7.23322695799876 25.397806213101802 2.9458859077493353 0 1 -1
982 1 8.017441437359935 27.727597355917325 2.538462637211171 0 -1 5
1347 1 8.603638198924942 25.09297870059696 1.2162183814574674 2 1 1
1350 1 9.39838656073618 -0.055276775693380346 4.254383849212585 -1 1 -1
651 1 11.37592256483535 24.233932216170977 3.350539231237237 -2 0 1
1426 1 9.450422586633843 27.39840866138482 0.40952950488582074 1 1 0
152 1 9.976267590903626 26.100211572274716 2.9570811405208377 -1 -1 0
438 1 10.872718813635865 28.335255979605193 2.2301485511588246 1 -1 0
634 1 12.443978360091762 26.370417054616574 2.8207935412056067 1 -1 0
1391 1 11.109675486160747 25.671095168204246 1.012451923754906 1 0 0
846 1 11.096709765987475 27.136141256210983 4.8420388571830575 -1 -2 0
73 1 4.039356417157293 26.48078066806184 12.908763408371453 -1 -1 -1
377 1 12.171102775644716 27.635275948312646 -0.026473145706317966 -2 -2 0
364 1 0.2642828393775193 1.0089672099305236 6.019238330312832 0 0 0
518 1 3.2332066035385645 1.7744037356078237 5.9360483088905935 1 -1 1
726 1 1.4850670439987874 2.9413360581220163 4.9884165955145345 2 -4 0
1368 1 1.8300322858861138 2.0187023388588807 7.76327078883536 1 1 -1
484 1 3.441981095165078 0.0517139712528312 8.213287995428834 -1 0 0
1541 1 4.211254465852284 3.640248361656627 5.1361744389598645 1 1 0
435 1 5.755117718291719 9.24512210368019 14.068883614004337 -1 -1 0
1825 1 0.7002733037835278 28.299807957973826 8.363679434340309 -2 -1 -4
1954 1 4.6239395827934215 2.5135267554805543 7.805009826549462 -1 2 2
1516 1 8.639626301675827 2.750293169825413 5.342497804681335 1 3 -1
1208 1 5.899195675151296 2.0084986571064833 5.721774747083907 -1 -1 1
1184 1 7.675283709716912 0.4109077793576291 5.791829373941278 0 2 0
446 1 6.98517763450145 3.0908902723997116 7.790906585442552 -1 0 -1
1860 1 6.278462852495388 0.8148328057865666 8.177568600098045 0 2 0
594 1 8.907077297687694 1.1885904291366716 7.649263352905705 2 -1 1
1796 1 4.865093372344277 -0.07076390234656382 6.2732253519338315 -1 0 0
88 1 9.22467959494629 3.583610504347691 8.429534107737524 1 1 1
5 1 13.886145686238322 2.531252905938202 8.940496378232007 -2 0 -2
850 1 10.702595022230595 1.0676064064564317 6.108181418014588 1 0 0
1340 1 12.349897092892563 1.7084305376936382 7.436441670676591 2 0 -2
1290 1 10.500004474518907 3.275923890931691 6.671317095652317 0 -1 -2
1690 1 13.911910450173362 1.329237651058722 5.523416572059564 1 -1 0
1030 1 10.867769605316816 2.018729328679623 9.363141717347034 1 1 -2
429 1 12.98283254650987 4.075896168856996 6.78354095705088 0 -1 0
769 1 2.2377125612969735 5.269738182455816 4.420659405426232 -1 2 1
763 1 2.7555771628579344 4.165643399034675 7.03116426335916 2 0 2
930 1 1.3063507504338199 4.267409252760151 8.709050294810151 -2 1 1
464 1 1.143300807348852 5.792039047151979 6.393640079775013 -1 1 0
1862 1 2.41339384986228 6.3094891716109345 8.180586490483499 0 0 1
1946 1 3.770768767257036 6.302896773460005 5.941493589088047 2 0 1
2035 1 4.2708633759104595 4.999845246692164 8.648162997186407 -2 0 -1
1233 1 1.7291753332703812 7.744702034044236 5.282142064635886 -1 0 2
35 1 6.811958745101755 4.135341738943202 5.015674651764074 -2 -2 0
817 1 4.968397246339121 7.29079183821645 7.872121060996262 2 1 1
555 1 5.602272330205934 4.61506975202177 6.939687063686557 1 -1 -1
129 1 6.435954948084135 6.735071615802447 6.257342438214991 2 -2 0
273 1 8.299980251739289 5.188488606593091 6.747757977050546 2 0 -1
1919 1 6.77847211161144 5.616077134910369 8.635913044827008 4 1 -1
162 1 7.656507530736844 8.025092295499281 8.152233639394254 0 0 -1
521 1 9.141762627660867 7.658862017673978 6.145058029143392 1 2 2
661 1 9.184549418067668 6.086675850236818 8.984381481551694 1 2 0
1186 1 10.036986009346618 5.069961460550857 4.858828582991008 1 2 -1
859 1 11.535352023616868 4.284428818630124 8.616529814942542 0 1 -2
491 1 10.62531236053586 5.979284782900254 7.052131440348962 0 1 2
977 1 12.2170190001369 5.371687577468741 5.229330270758621 -2 0 3
394 1 12.982233568720961 6.521659051343001 7.5403298275526955 0 1 0
2002 1 11.456137279411623 7.834490651330234 5.96512312060198 0 3 2
1678 1 11.615616796372102 6.788898851901212 9.499599051811796 -1 0 0
1612 1 2.8032354345267434 9.891359720885305 4.810161926764726 0 1 2
1071 1 0.4268717064850658 7.919525325279803 7.4598152699408535 0 0 -2
914 1 3.2051608934228613 8.735983969859419 7.021139892586176 2 -1 0
1830 1 1.3255769445202532 10.148576048781159 6.5424515275427355 -1 -1 1
2030 1 2.4843255944755893 11.361107993101012 8.398030539768703 1 0 0
1785 1 4.032365313894504 10.861824532939874 6.581545997854618 -1 -1 1
1854 1 4.290589996036686 9.80555460033646 9.011409263012414 2 2 1
460 1 1.5384573854315047 9.328518388230307 8.952935857683842 3 1 1
631 1 4.867839367597468 8.221089033073667 5.353473818770003 1 -1 1
289 1 13.798818225449144 24.788617063800984 13.750125996774669 1 -1 0
1394 1 5.54004527676521 10.436619627261088 4.813615486138472 0 1 0
108 1 8.309241641046794 11.35434909859906 4.611856115290462 -4 1 0
1906 1 5.778634204187041 9.451819114534588 7.111191292273666 2 0 0
466 1 7.382573411612909 9.091765294087205 5.400291190703004 1 2 0
1055 1 6.746878514310466 11.49404348206744 6.565522249725994 2 -1 -1
1179 1 8.52372365524074 9.916685672641146 7.40679720792744 -1 -1 1
1243 1 7.029305780665267 10.47835394642815 9.186910040031197 2 0 -1
462 1 11.143188053484343 12.11088486775041 4.464378014964174 -1 -2 1
728 1 13.90698232800062 12.324095528372595 4.76806639498357 0 -1 0
1280 1 10.5090119360061 25.35296809607268 11.389908210237198 1 0 -1
944 1 10.23908211081217 8.170002310561445 8.231515252396479 1 -1 0
773 1 9.856261711014078 9.723055884559553 5.151254638774013 0 -1 0
805 1 12.648460270388398 10.083907945788965 5.215690440750844 -4 -1 0
22 1 11.25005137971531 10.540258421298274 7.112455558409026 -1 0 -2
860 1 12.842323655980469 8.887147394514722 8.388266894086517 0 -2 -1
776 1 9.770638865209108 10.917076229390588 9.028570369404086 1 -1 -1
771 1 13.895804503085484 11.146005897371262 7.111496837587578 -1 -3 1
583 1 12.39172647290596 11.298389221419084 9.214314033530036 1 -2 -3
1411 1 3.4069041996858807 14.582768930205587 4.934761075031598 1 -2 1
1284 1 2.163712122392728 12.36680894526056 5.928752848340786 1 0 3
1438 1 0.3969861875103266 13.769778561349098 5.03101169183304 0 1 0
136 1 0.6032805747637419 13.0054345231997 7.727420273590523 2 1 2
387 1 1.676119709846325 14.85933851976833 6.712330783448767 0 -1 2
729 1 3.2159747373691956 13.317749706484497 7.428990462644123 1 0 0
1776 1 4.392813443060546 15.497003321764263 7.146089699045431 -2 0 -1
1305 1 0.26788808131263375 15.394187155394587 8.62780140805084 4 0 0
1326 1 5.142300852347788 11.957651523057768 8.233760243162477 1 -3 0
683 1 7.916400016243605 12.52498111534215 8.539083229417603 -1 0 -1
1026 1 4.965215780340638 13.046604653397958 5.903213131938444 -1 2 -1
188 1 7.6516093579584155 13.648681084663018 5.943054007407865 1 -2 -1
371 1 6.174552035981709 13.974593698667007 7.84597634098131 1 -1 1
1965 1 9.576541449647127 14.61384078425429 7.446768914320832 1 1 -1
173 1 4.441032199091568 14.431973260142033 9.413703538487983 0 -2 -1
1927 1 11.991181997553923 26.030113495330397 13.133956034581686 0 -1 2
1737 1 9.588962531730244 12.17407527788125 6.502361507466091 -2 -1 2
1023 1 13.179058913143258 13.528030610729736 8.480975419739353 3 0 -2
1734 1 10.688944380614528 14.2640630880873 5.453653954683001 -1 2 1
1621 1 11.964966818415823 12.653841397680875 6.6518919939338295 3 1 -2
1323 1 11.748673505662566 15.134952345145134 7.868548412545284 2 -2 -1
1685 1 10.80593298811028 12.967766909388045 8.494531028125495 0 0 0
1569 1 13.258991644799242 14.904968556112843 5.736476483203635 -1 1 -1
581 1 2.726656457185036 15.878500494750146 8.727677080266286 0 3 -1
445 1 0.670881926345205 18.603097560878588 5.364928773775252 1 -1 1
840 1 3.7476484440950686 19.106384847565124 5.4334459266544695 1 -1 -3
1130 1 2.603298934588418 17.103236283685625 5.939300973088096 0 -1 -1
416 1 1.0361391914287024 17.440192042014843 7.661044151564224 1 -1 -1
213 1 2.236223819998265 19.58282000858538 7.029112454064739 1 -1 2
1215 1 4.14068075401279 17.746289518596313 7.9181164186020645 2 -1 -1
627 1 0.8984477363446695 19.927621091102075 8.871354559624626 1 -2 -1
685 1 7.322889084924053 16.05382586436714 6.801632514026384 0 -2 1
629 1 5.910526511554267 16.32276526674829 8.651173259064144 2 0 1
451 1 6.640290264065357 19.626755852384832 5.271554690898615 2 1 1
1419 1 5.460200259712482 17.5597479800087 6.027372254083656 0 -2 0
938 1 6.807466964407212 18.5148861104541 7.862682431727195 1 0 0
736 1 8.288616831866776 17.930986872599426 5.750035978577387 0 -1 -1
1281 1 5.113081207247434 19.887612198028286 7.074635450000791 -1 0 0
79 1 8.896439121888118 17.118312868302752 8.162247236224172 2 0 -1
804 1 8.660296961970229 19.520808170293535 9.464520357564606 -1 -1 -1
1155 1 13.316762940439519 25.409315585333538 11.256824470646233 2 -1 1
1883 1 13.927613959586948 23.187975742504385 10.161278863836323 -1 -1 0
1657 1 11.653409196391127 16.44408702750971 4.449567173114709 1 -1 -1
314 1 10.200868448791857 19.33252011389383 7.090751826868928 1 1 -1
917 1 10.155909995992376 16.81301139815568 6.453556760073725 1 3 1
1339 1 12.606092831810653 17.180311963199834 6.6643287156857935 0 -1 1
540 1 11.45401827033484 19.006002854804656 5.332170570673283 1 0 1
1697 1 12.773660403554581 20.00463541759546 7.229139149185076 -2 -1 0
340 1 11.433436393322225 20.138384601070044 9.246638188934844 -1 1 1
1524 1 13.470865703479086 18.431850083454677 9.180193848176687 -1 1 0
163 1 3.587662171055241 20.51664293002281 8.897516887911252 0 -1 -1
1114 1 0.5093305415790256 21.102287889882504 6.363411484104573 3 0 -1
1807 1 1.575935322608031 23.1237467037052 5.863045351879114 2 -2 -1
625 1 3.190977550114782 21.61702224130616 6.465106439620138 0 2 0
1312 1 1.7078291236738108 22.169628604254363 8.237873349806645 -1 2 1
1159 1 3.206522740276597 24.007168515398362 7.593787252670585 2 -1 -2
524 1 -0.09073445543025674 23.688237526896856 7.598833927942248 -1 -2 1
1867 1 4.507155452822913 23.708821263455626 5.517930573883322 2 -3 -3
875 1 4.781665698130768 22.382084443747253 8.130289847530104 -1 -2 1
40 1 7.983842885959868 20.619899031895173 7.033684118527859 1 0 1
1051 1 6.13468584016197 22.180307524506624 6.377041123908291 -1 0 -1
595 1 6.5366225579881645 20.984587250840264 8.850542803541666 -2 2 1
1577 1 7.548281126985816 23.165441648279405 8.061323467377441 2 1 1
1390 1 9.205956297136108 22.897583093503613 6.011737893162712 -3 -2 1
750 1 7.136449830824969 23.998238558241376 5.5500047191979185 0 0 2
1286 1 12.49851153873281 21.07207427682004 4.877708573962834 -3 -1 0
1938 1 9.519771022513257 19.985314235269186 5.046200770867631 1 -1 1
1744 1 9.61941703201759 21.83768202377172 8.49936819927266 0 0 -2
206 1 10.500301428784304 23.84471244612056 7.766824276790881 2 -2 1
961 1 12.399984232352157 22.30446065060471 8.295116636767627 1 0 3
1550 1 11.027551615681222 21.500056566118133 6.553757787858322 0 2 0
814 1 11.902401018425483 23.475345088227705 5.6780568985913895 2 0 0
1319 1 13.476028841866949 24.4926608706794 7.495365102697064 -1 3 -2
1990 1 13.827324732277877 22.212973385122147 6.308593889529454 -2 -1 0
1915 1 2.5681196723410102 25.121516493570972 4.983158452978485 -1 1 1
1914 1 1.573795003520936 25.43173596948958 7.206745725779609 0 -1 2
194 1 2.161486020288055 27.82754504849354 6.3095027763122875 -1 0 0
222 1 2.4183663482552675 26.591546761010157 8.979003357801838 1 -1 1
1383 1 3.7716366276382285 26.37731425317306 6.877724945790425 1 0 0
211 1 6.176589900121288 25.227820252648307 13.372320285750398 -1 3 -2
1679 1 4.219363265185708 25.014630125427793 9.347236500317997 -1 0 0
468 1 8.006251855767939 26.388586556223515 4.853922929818916 0 -1 -1
999 1 5.277621021666778 25.951617859682614 4.986833524915057 0 -1 1
278 1 5.680409275595253 24.690433167790196 7.363462993311691 0 -1 1
192 1 6.467821168126344 26.83182676405852 6.71684538596488 2 0 1
772 1 5.282356264779118 27.124320036989566 8.666217659017214 0 1 -1
315 1 8.024242358551778 27.739156590272607 8.394819217742898 0 0 -2
1163 1 8.632321116901977 25.12112986971104 7.2222976218165424 2 0 -2
1407 1 7.359956658227352 25.47123297660788 9.169891450408464 0 -1 1
851 1 10.905089610005017 28.276306972112373 8.275342181688261 -1 2 0
134 1 11.942237517841619 24.773702030360262 9.344551766247752 1 -1 -1
1652 1 12.639544398724277 28.010358289008423 6.344355587413922 0 3 3
984 1 9.400303085623026 27.55700320876675 6.502475564754649 0 1 0
1182 1 13.037660618607966 25.487636482199505 5.467128407728972 0 -1 2
1775 1 9.950052364662865 24.8589358468476 5.329538282703915 -1 1 3
178 1 9.878030684048623 26.206906388512365 8.99335055569024 0 0 0
1118 1 13.015128179994033 26.73037985029871 8.556422905945473 -1 1 -1
2025 1 11.19965312085277 25.952100062998873 7.005799091631775 0 -1 -2
745 1 3.1074412455287983 3.1077152063283044 9.724941559041717 0 1 1
1413 1 0.23863744879817533 2.1460864669872444 9.64450889807782 1 1 -1
1105 1 2.2402988523909593 0.8246492012894597 10.034446631406361 2 2 -1
1033 1 1.578493520745564 3.3261792592267057 11.72031761063962 0 2 -1
1671 1 0.36842328442792743 1.0732224821854959 11.771637468654916 -2 -2 -2
1496 1 3.485909707510462 1.6422174304230877 11.970861905758838 2 1 1
1982 1 1.7230402249702972 1.7985983516563175 13.929518753126441 -1 0 1
826 1 3.974355432814024 3.998658897975125 11.896476760373217 0 0 3
1217 1 13.91161303486672 18.9341573935982 5.159273903643665 0 0 1
1774 1 4.791400878382388 2.555921040234908 13.920777722309843 2 2 2
1481 1 4.885659528084017 4.971946419887223 14.045366633799102 1 -2 0
282 1 5.712070098243697 3.56316868966487 9.898103867953393 0 2 2
1399 1 7.773633699229239 1.7885218478691716 9.56002193615895 2 3 1
1336 1 4.647208598353601 1.1698905155715997 9.91482530211522 2 -2 -1
492 1 6.099412821272843 2.1636843363625835 11.556228016331602 0 1 -1
1257 1 8.108462295545678 2.916185198223528 13.090953374732969 -1 -2 1
302 1 8.27232761964373 0.5779863777581855 11.79661943924911 0 -1 0
1711 1 5.2769791536334685 0.2859530179629112 12.226133781431093 -1 1 1
1917 1 3.2450017940716553 8.976919640811452 13.96770640166613 1 -1 -2
1651 1 0.3859116119328615 8.310218784110836 13.965385428947062 2 -1 -1
1151 1 13.248843455070265 28.010797019025702 12.351175812236667 1 0 -1
1708 1 9.513687247183624 2.6336171425502655 11.075278505460265 1 1 1
727 1 9.702681257075035 0.16805632598891312 10.156026729362337 0 1 1
577 1 12.648967436956667 0.7702268323373387 9.760495282002221 -1 0 0
1780 1 10.096551518097485 1.559800621670242 13.50111720938681 0 2 0
66 1 12.530840227367696 2.230963040504012 13.415284446624721 -2 0 0
1152 1 11.50944935495416 0.9830207976948564 11.736353514232182 1 3 0
1894 1 12.168701444328438 3.3739944843971363 10.758380132523147 -2 1 0
168 1 10.75260565052703 3.6305753540094354 12.749202755220153 -2 1 -2
1638 1 2.691688320936807 4.2785956437814905 13.570039407294578 1 0 -2
1228 1 0.7158700174690872 7.263379820078523 9.782220729828818 0 0 0
723 1 1.0160317300392785 5.68279187820958 12.697774692699431 1 -1 1
12 1 2.595115207715653 5.497608293502563 10.5041206473171 0 0 0
420 1 3.556014138323653 6.53081696119101 12.45223081780278 0 -2 0
103 1 3.4239433635680854 7.590950039687253 9.887591627586701 1 0 -1
1802 1 8.500715880310128 26.700759834587267 10.943167847774582 0 0 1
1857 1 -0.04201667174751833 10.85591987744595 8.318308526084044 1 -3 1
1800 1 2.599685795747675 25.4467992962717 11.310963564685972 -2 -1 2
912 1 5.998306549974365 6.86608238135605 12.928427151845332 0 1 2
526 1 5.246629707457459 5.8993815097216835 10.750872047108688 2 1 0
1224 1 8.02483240216358 4.4060451321713145 10.35615084287317 -1 0 -1
60 1 6.377554835208486 4.572061602395091 12.381611686734958 1 1 0
1939 1 7.708743535947001 6.627653657121795 10.705800205879278 -1 -1 0
1575 1 8.571774655511692 5.150672526291825 12.423140079776873 1 2 0
693 1 8.323616148249465 7.725597097584228 12.94834179390538 1 1 -1
843 1 9.905431204570183 7.03397652565604 11.324239284995654 -1 0 2
838 1 13.5478790133367 5.0778439290579565 9.786518077112062 -1 0 1
1517 1 10.285703246836194 4.789490555131027 10.586959580477096 -1 1 1
1535 1 12.019684347631062 5.814542767943017 11.94557132210589 0 0 -1
157 1 13.208882043088641 6.764833463594264 13.423987589625002 -2 1 1
1039 1 13.87312291689842 4.283070508938655 12.665438166051677 1 1 0
1662 1 10.663221977013059 6.189071157199911 13.622333877589531 0 -1 0
1853 1 13.376127728735433 7.802071902816928 10.785558279553912 1 1 1
1536 1 11.530678326553998 8.376531731984416 12.806391058583024 -1 2 0
1828 1 1.9072400585088176 8.013213665165422 11.8858590982252 0 1 0
1099 1 1.0571831197753554 11.57492194286673 10.359040712590675 2 -2 0
1210 1 1.3846626418500092 10.355891083664211 12.84764889425936 1 0 0
1859 1 2.97101530474108 10.10669745008405 11.00136488677856 -1 -2 -3
174 1 3.9657343504207994 11.17225438568497 12.988199072623111 4 0 -1
552 1 4.533690238207512 8.502917952774867 11.798411481139821 -2 0 -1
1158 1 -0.04236565237740732 16.175589484112493 5.732146528552052 -1 0 2
1540 1 6.119628956553728 8.29536776861014 10.004917085629517 1 0 3
1328 1 5.408720184183374 11.207239040870748 11.003436003550007 0 0 -2
660 1 7.063023284221872 9.482299766221805 11.959055465324191 2 -1 -1
833 1 8.02283497933176 11.318602232214861 11.15977430695719 2 0 0
1239 1 8.664949658699568 8.719731574051954 10.101733165985888 1 2 1
13 1 6.713888252007163 11.622680311385533 13.129517918450947 0 1 -1
1637 1 3.444723432616881 13.725278272429827 14.035856470820141 0 1 0
1021 1 13.851088728395283 11.05678129761037 13.800585801822026 0 -2 1
1735 1 9.635622546574961 9.58278033297296 12.285892074429672 0 2 -1
433 1 11.23638785307338 9.320278804409035 10.177279536726713 0 1 0
495 1 12.484580920466437 10.424442553726832 11.813988409739956 4 -1 0
559 1 10.979336597018033 10.746742314843683 13.964436762203752 0 0 0
1361 1 10.648706074861538 11.797247978147091 11.133112539100715 -3 -2 0
312 1 13.637324310220984 12.423610936976399 10.971209354056464 -1 0 1
1344 1 3.5665574129551456 12.43775349666393 10.343735075191356 0 2 1
1192 1 5.741721906871459 25.882147761355085 11.052211303013085 -1 0 1
1512 1 1.8205931743533614 13.828249013731241 9.533561935037804 -3 0 2
39 1 1.8582787681781672 12.515139962776102 12.548936448975509 -2 1 -2
573 1 1.9486205024192675 15.276312625374326 13.188511304631001 2 0 2
2019 1 3.3120723487765353 14.515595130935584 11.501038076445624 2 2 1
1398 1 0.4206470420968925 14.106848051697325 11.631625351661521 1 -1 2
44 1 1.415465612700764 16.101024231584546 10.647532132724933 0 -1 1
511 1 14.001712558895857 1.4487959080543222 11.403884858394353 1 1 2
989 1 7.803211219027406 15.096159397643142 9.353543360598364 1 1 -1
943 1 9.296264418447366 12.181944208437088 13.180516116709612 -1 -1 -1
880 1 4.753517318073744 15.911537642235851 12.68477084732573 1 -1 -1