LAMMPS (29 Oct 2020)
OMP_NUM_THREADS environment is not set. Defaulting to 1 thread. (src/comm.cpp:94)
  using 1 OpenMP thread(s) per MPI task
package omp 0
using multi-threaded neighbor list subroutines
package omp 2
set 2 OpenMP thread(s) per MPI task
using multi-threaded neighbor list subroutines
# units metal
# dimension 3
# boundary p p p


# lattice fcc 3.5440
# region box block 0 8 0 8 0 8 units lattice
# create_box 1 box
# create_atoms 1 box

read_restart after_heating_press_50000_2600.lmp
Reading restart file ...
  restart file = 29 Oct 2020, LAMMPS = 29 Oct 2020
  restoring atom style atomic from restart
  orthogonal box = (-0.62950224 -0.62950224 -0.62950224) to (28.981502 28.981502 28.981502)
  2 by 1 by 2 MPI processor grid
  pair style eam/alloy/omp stores no restart info
  2048 atoms
  read_restart CPU = 0.001 seconds

variable P equal 50000
variable dt equal 0.001
variable loopVar loop 6
variable sys_press equal "press/10000"
variable sim string "cooling"
#variable temp_word equal "heating"

# print "step temp vol pe" file heating.txt screen no

pair_style eam/alloy
pair_coeff * * Co_Zhou04.eam.alloy Co
Reading eam/alloy potential file Co_Zhou04.eam.alloy with DATE: 2018-03-30




neighbor 2 bin
neigh_modify every 10 check yes

thermo 1000
thermo_style custom step temp vol press ke pe density

timestep $(dt)
timestep 0.0010000000000000000208

# fix 2 all npt temp 300 300 $(dt*100) iso 0 0 $(dt*1000)
# run 30000
# unfix 2





# dump_modify 1 append yes
# dump 3 all custom 10000 traj_npt_new.lammpstrj id type x y z

# velocity all create 1900 123123

print """
yo aagadi
"""

yo aagadi

label ensemble

print """
Label pachadi solti, hos garam.
"""

Label pachadi solti, hos garam.

variable T equal 1700-${loopVar}*100
variable T equal 1700-1*100
#variable T equal 1250
# velocity all create 1200 123123
reset_timestep 0
fix 1 all npt temp $T $T $(dt*100) iso $P $P $(dt*1000)
fix 1 all npt temp 1600 $T $(dt*100) iso $P $P $(dt*1000)
fix 1 all npt temp 1600 1600 $(dt*100) iso $P $P $(dt*1000)
fix 1 all npt temp 1600 1600 0.10000000000000000555 iso $P $P $(dt*1000)
fix 1 all npt temp 1600 1600 0.10000000000000000555 iso 50000 $P $(dt*1000)
fix 1 all npt temp 1600 1600 0.10000000000000000555 iso 50000 50000 $(dt*1000)
fix 1 all npt temp 1600 1600 0.10000000000000000555 iso 50000 50000 1
Resetting global fix info from restart file:
  fix style: npt/omp, fix ID: 1
print """
<--------------------------------------------------------------------->
<------------------ Equilibrating at temperature $T ----------------->
<--------------------------------------------------------------------->
"""

<--------------------------------------------------------------------->
<------------------ Equilibrating at temperature 1600 ----------------->
<--------------------------------------------------------------------->

fix temp all print 1000 "$(step) $(temp) $(press) ${sys_press} $(vol) $(ke) $(pe) $(density)" file temp_${sim}.txt screen no title  "step temp press pressGiga vol ke pe density"
fix temp all print 1000 "$(step) $(temp) $(press) ${sys_press} $(vol) $(ke) $(pe) $(density)" file temp_cooling.txt screen no title  "step temp press pressGiga vol ke pe density"
run 250000
All restart file global fix info was re-assigned
Last active /omp style is pair_style eam/alloy/omp
Neighbor list info ...
  update every 10 steps, delay 10 steps, check yes
  max neighbors/atom: 2000, page size: 100000
  master list distance cutoff = 7.6035394
  ghost atom cutoff = 7.6035394
  binsize = 3.8017697, bins = 8 8 8
  1 neighbor lists, perpetual/occasional/extra = 1 0 0
  (1) pair eam/alloy/omp, perpetual
      attributes: half, newton on, omp
      pair build: half/bin/atomonly/newton/omp
      stencil: half/bin/3d/newton
      bin: standard
Per MPI rank memory allocation (min/avg/max) = 4.314 | 4.314 | 4.314 Mbytes
Step Temp Volume Press KinEng PotEng Density 
       0     2637.743    25963.272    48829.077    697.93498   -7930.8373    7.7193039 
    1000     1605.647    24545.532        49762      424.847   -8285.1983    8.1651678 
    2000    1556.7074    24601.832    47230.332    411.89779   -8276.8091    8.1464823 
    3000     1578.905    24521.194    52959.012    417.77119   -8272.5958    8.1732718 
    4000    1618.7758    24466.769    51582.972    428.32083   -8295.9518    8.1914531 
    5000    1597.5719     24679.81    39689.732    422.71037   -8282.0456    8.1207427 
    6000    1612.1388     24502.26    50347.798     426.5647   -8295.1621    8.1795878 
    7000    1628.3166    24447.423    53371.333    430.84528   -8296.2698    8.1979351 
    8000    1565.9848    24510.858    46092.961    414.35256   -8307.0934    8.1767186 
    9000    1611.8588    24574.226    44699.201    426.49062   -8297.6604    8.1556336 
   10000    1622.9881    24490.265    53206.468    429.43538   -8286.7574    8.1835941 
   11000    1618.3072    24483.046    51609.503    428.19683   -8292.6418    8.1860069 
   12000    1607.3081    24517.969    49498.191    425.28653   -8293.0673    8.1743469 
   13000    1539.8268    24490.346    48554.149    407.43126   -8301.3687    8.1835669 
   14000    1623.0607    24524.773    46790.587    429.45459   -8302.5701    8.1720792 
   15000    1633.5142    24523.217    51063.084    432.22054   -8285.2257    8.1725976 
   16000    1578.3241    24473.263    51529.938    417.61749   -8295.1052    8.1892792 
   17000     1601.289     24537.44    46074.963    423.69388   -8300.4124    8.1678605 
   18000    1641.1843    24454.411    54433.108    434.25001   -8292.2027    8.1955925 
   19000    1600.9005    24539.098    49930.845     423.5911   -8285.7966    8.1673085 
   20000    1577.7096    24482.365    49841.034    417.45487   -8296.7829    8.1862347 
   21000    1615.9393    24511.141    48844.291     427.5703   -8297.0733    8.1766241 
   22000    1626.0655     24498.46    44983.725    430.24964   -8316.3828    8.1808567 
   23000    1627.6817    24533.343    48786.314    430.67728   -8291.9217    8.1692244 
   24000    1580.2737    24373.326    54868.088    418.13335   -8305.4671    8.2228574 
   25000    1576.7219    24653.711    43305.027    417.19354    -8280.327    8.1293394 
   26000    1621.7667     24562.54    49147.333     429.1122   -8282.4376     8.159514 
   27000    1615.8715    24502.815    51352.492    427.55236     -8291.41    8.1794025 
   28000    1582.8059    24503.238    50846.963    418.80333   -8292.1463    8.1792613 
   29000    1588.4258    24472.529    52795.689    420.29034   -8289.8346    8.1895248 
   30000    1652.8314    24516.829     51997.93    437.33179    -8280.677     8.174727 
   31000     1574.056    24584.207    45102.697    416.48817   -8291.3123    8.1523226 
   32000    1605.7704    24534.262    46705.196    424.87965   -8298.0292    8.1689185 
   33000    1595.2785    24496.437     50583.79    422.10354   -8290.2509    8.1815322 
   34000    1684.2813    24525.249      51571.5    445.65329   -8288.3874    8.1719206 
   35000    1600.3656    24513.474    51826.125    423.44957   -8286.4251    8.1758461 
   36000    1625.5004    24727.619    43546.515    430.10013   -8256.1401    8.1050417 
   37000    1605.5967    24484.262    52251.763     424.8337   -8291.9246    8.1856005 
   38000    1659.1944    24517.173    52914.574    439.01541    -8279.378    8.1746125 
   39000     1599.815    24470.013    51198.829    423.30388   -8296.8725    8.1903671 
   40000     1613.995      24472.4    53232.949    427.05585   -8287.9803     8.189568 
   41000    1604.7828     24531.76    46807.865    424.61833   -8299.7188    8.1697515 
   42000     1587.278    24549.208    46186.287    419.98664   -8292.7017    8.1639451 
   43000    1619.6088    24368.977    58405.723    428.54123   -8298.6104     8.224325 
   44000    1590.8781    24508.643    51104.805    420.93922   -8290.2283    8.1774573 
   45000    1582.6662    24538.714    49561.343    418.76637   -8283.3102    8.1674364 
   46000    1593.2773    24536.069    48073.953    421.57404   -8292.3356    8.1683168 
   47000    1593.9399    24576.277    49568.077    421.74935   -8276.3235    8.1549532 
   48000    1618.8113    24474.142    51395.022    428.33022   -8297.5353    8.1889853 
   49000     1612.815    24506.967    51844.327    426.74362   -8284.3777    8.1780167 
   50000    1615.0915    24660.278    42950.361    427.34596   -8278.6804    8.1271746 
   51000    1534.1657    24541.429    48352.604    405.93337   -8283.8801     8.166533 
   52000    1592.8826    24459.274    54318.912    421.46958   -8286.5696    8.1939631 
   53000    1630.4648    24454.369    53326.751    431.41367   -8294.7475    8.1956065 
   54000    1611.8915    24603.174    40751.674    426.49927   -8304.0107    8.1460379 
   55000    1581.1362    24507.359    49903.029    418.36154   -8293.6016    8.1778859 
   56000    1616.6954    24514.753    52979.543    427.77035   -8279.5006    8.1754193 
   57000    1597.3292    24571.094    47872.552    422.64615   -8288.4312    8.1566735 
   58000    1605.3256    24492.291    52502.348    424.76196   -8292.0389    8.1829172 
   59000    1615.4806    24440.229     54106.49    427.44892   -8296.9812    8.2003482 
   60000    1621.3772    24438.466    54040.346    429.00913   -8298.6827    8.2009397 
   61000    1614.1835    24591.598    43575.445    427.10572   -8296.5495    8.1498723 
   62000    1612.8408    24566.698    49338.002    426.75044   -8281.9147    8.1581328 
   63000    1615.4875     24444.22    55995.384    427.45074   -8286.9113    8.1990091 
   64000    1582.9644    24558.449    47459.515    418.84529   -8287.6491    8.1608731 
   65000     1605.996    24544.141    46584.724    424.93934   -8297.5663    8.1656306 
   66000     1600.839    24449.153    51558.764    423.57483    -8303.031    8.1973549 
   67000    1577.0927    24404.648    55715.172    417.29165   -8299.4297    8.2123038 
   68000    1634.3761    24557.938    46348.125    432.44859   -8294.1122    8.1610428 
   69000    1567.9246    24426.426    55253.963    414.86582   -8292.8095    8.2049822 
   70000    1554.5667    24389.481    56676.012    411.33137   -8298.1506     8.217411 
   71000    1614.7165    24586.571    43140.428    427.24675   -8299.1535    8.1515389 
   72000    1553.0681    24445.006    51835.282    410.93485   -8303.7044    8.1987455 
   73000    1587.7706    24416.639    57879.169    420.11697    -8285.431    8.2082709 
   74000    1641.1312    24671.961    38682.476    434.23597   -8300.3871    8.1233261 
   75000    1614.5574    24508.297    51900.978    427.20466    -8285.107     8.177573 
   76000    1633.7556     24493.26    51614.222    432.28441   -8289.6114    8.1825932 
   77000    1589.4458    24549.697    46496.223    420.56022   -8295.5495    8.1637825 
   78000    1619.6893     24513.14    47452.079    428.56254   -8303.0129    8.1759573 
   79000    1601.4314     24556.39    49469.897    423.73158   -8283.1203    8.1615575 
   80000    1561.8734    24527.275    46426.999     413.2647   -8301.0007    8.1712454 
   81000    1564.4307    24428.072    52418.612    413.94134   -8307.2029     8.204429 
   82000    1658.3116    24435.614    55739.231     438.7818   -8289.6852    8.2018968 
   83000    1579.3179    24554.428    46430.792    417.88044   -8292.2838    8.1622094 
   84000    1622.5656    24556.226    46320.849     429.3236   -8293.1694    8.1616118 
   85000    1605.0292    24498.124    50521.326    424.68352   -8292.6605    8.1809687 
   86000    1572.1591    24570.582    46370.568    415.98624   -8290.0635    8.1568432 
   87000    1604.3226    24376.769    55980.005    424.49656   -8304.5009    8.2216961 
   88000     1622.541    24474.391    49429.719    429.31708   -8305.6877    8.1889017 
   89000    1557.0055    24554.447    45665.254    411.97668   -8298.7352    8.1622031 
   90000    1626.2139    24515.977     52607.48    430.28891   -8273.7865    8.1750111 
   91000    1638.7602    24434.566     52721.14    433.60859   -8304.8538    8.2022486 
   92000    1601.4391    24496.462     49894.54    423.73362   -8297.5517    8.1815237 
   93000    1563.9215    24512.362    51340.671    413.80661   -8285.4879    8.1762169 
   94000    1596.8068     24475.48    51685.967    422.50793   -8293.1844    8.1885376 
   95000    1559.6228    24569.131    45721.824     412.6692   -8291.0534    8.1573251 
   96000    1612.2067    24437.008    55530.181    426.58266   -8293.8587    8.2014292 
   97000    1557.9583    24503.434     50793.17    412.22877   -8286.9246    8.1791959 
   98000    1582.8205    24577.119     47657.31     418.8072   -8281.4867    8.1546737 
   99000    1591.7102    24443.294    53854.925    421.15938    -8294.629    8.1993197 
  100000    1567.2709    24435.822    52229.912    414.69286   -8304.6146     8.201827 
  101000    1604.7902    24592.311    44932.799     424.6203   -8288.7932    8.1496362 
  102000    1537.7034    24528.021    45882.518    406.86943   -8306.4821     8.170997 
  103000    1590.8175     24415.99    57851.375    420.92319   -8285.3811    8.2084889 
  104000    1663.0684    24558.056    45871.642    440.04044   -8300.5188    8.1610036 
  105000    1599.6683    24568.616    44959.609    423.26505   -8296.1073     8.157496 
  106000    1588.8037    24419.785    54367.603    420.39034   -8299.8309    8.2072135 
  107000    1588.9663    24560.179    47722.337    420.43336   -8286.8977    8.1602984 
  108000    1576.1699    24578.902    44005.224    417.04749   -8298.9363     8.154082 
  109000    1607.6555    24438.329    55635.161    425.37844   -8288.9148    8.2009858 
  110000     1622.009    24611.056     44096.81     429.1763   -8288.4798    8.1434289 
  111000    1570.7199     24496.82    50368.057    415.60543   -8292.7719    8.1814041 
  112000    1610.5328    24442.068    53062.865    426.13977   -8299.8298    8.1997311 
  113000    1640.5091    24564.001    48232.424    434.07134    -8283.995    8.1590285 
  114000    1657.2208    24502.024    49173.212    438.49319    -8305.184    8.1796667 
  115000     1582.985    24497.704    49489.033    418.85073   -8296.2846    8.1811089 
  116000    1621.1749    24459.028    53773.886    428.95561   -8291.8966    8.1940453 
  117000    1575.5292    24557.565    46317.989    416.87795   -8294.4956    8.1611669 
  118000    1569.1932    24408.476    52184.928     415.2015   -8311.1447    8.2110159 
  119000    1588.0589    24450.794    53672.742    420.19328   -8295.4726    8.1968048 
  120000    1606.7176    24495.801    46060.361    425.13027   -8313.6307    8.1817445 
  121000    1604.4466    24503.579    48872.124    424.52938   -8301.9607    8.1791474 
  122000    1623.9053    24569.269    48639.841    429.67805   -8284.5917    8.1572791 
  123000    1612.5366    24417.925    53299.928    426.66996   -8305.3364    8.2078384 
  124000    1615.0876    24487.894    51017.121    427.34494   -8291.0054    8.1843863 
  125000    1585.4116    24515.179    50826.574     419.4928   -8285.5397    8.1752773 
  126000     1611.716    24473.179    53900.896    426.45283   -8287.4752    8.1893074 
  127000    1585.3302    24497.735    51549.006    419.47126   -8288.7812    8.1810986 
  128000    1600.1333    24625.035    40625.539    423.38808    -8300.309    8.1388063 
  129000     1560.274    24493.907    49159.024     412.8415   -8295.6627    8.1823771 
  130000    1619.1261    24462.307     50477.16     428.4135   -8307.6535     8.192947 
  131000    1617.4892    24485.432    52930.983    427.98038   -8288.3443    8.1852093 
  132000    1606.0537    24558.059    48976.454    424.95461   -8285.8159    8.1610028 
  133000    1591.4447    24573.207     43212.83    421.08912   -8303.3277     8.155972 
  134000    1600.1419     24419.91    54217.733    423.39036   -8301.1516    8.2071712 
  135000    1590.4519    24474.115    53242.902    420.82645   -8285.5553    8.1889944 
  136000    1609.0191    24547.373    48184.999    425.73925   -8291.4625    8.1645553 
  137000    1605.9984    24501.142    50139.675    424.93998   -8293.0086     8.179961 
  138000    1625.5712     24603.11    45560.027    430.11886   -8284.0918    8.1460592 
  139000    1626.5465    24452.247    49907.889    430.37692   -8310.3378    8.1963177 
  140000    1601.5887    24432.624    54974.776    423.77318   -8290.7704    8.2029007 
  141000    1579.8598    24532.845    51073.742    418.02383   -8281.6126    8.1693903 
  142000    1603.0838    24480.567    50322.745     424.1688   -8305.4537    8.1868359 
  143000    1585.1709    24477.724    52817.129    419.42912   -8289.4183    8.1877869 
  144000    1559.6274    24577.708    44031.847    412.67042   -8296.3145    8.1544782 
  145000    1581.3403    24486.181    53673.116    418.41555   -8282.1455     8.184959 
  146000    1628.1251    24521.348    49112.502     430.7946   -8294.2199    8.1732206 
  147000    1619.3225    24542.602    45818.471    428.46546    -8302.172    8.1661426 
  148000    1591.0023    24571.973    46735.891    420.97208   -8289.2148    8.1563816 
  149000    1617.1635     24452.35    53793.913    427.89421   -8293.6593    8.1962831 
  150000     1569.445    24452.478    51697.971    415.26811   -8299.6089    8.1962403 
  151000    1612.5687      24553.7    42498.683    426.67845   -8315.3708    8.1624514 
  152000    1601.3217    24525.296    50434.426    423.70255   -8285.8754    8.1719047 
  153000     1649.804    24372.975    58715.626    436.53073     -8299.57     8.222976 
  154000    1593.6062    24577.506     47152.24    421.66106   -8286.8078    8.1545454 
  155000    1592.4104     24541.68    46470.202    421.34465   -8301.1737    8.1664493 
  156000    1610.3325    24475.881    53158.414    426.08677   -8286.2672    8.1884033 
  157000      1574.34     24466.14    50269.276    416.56331   -8305.1465    8.1916636 
  158000    1580.2588    24575.869    46691.273    418.12939   -8288.5382    8.1550886 
  159000    1583.2435    24381.357    59285.048    418.91913   -8285.9044    8.2201491 
  160000    1596.9086    24505.595    47333.014    422.53487   -8302.9868    8.1784746 
  161000    1584.9657     24510.88    47863.161    419.37482   -8301.4925    8.1767111 
  162000    1636.6402     24527.56    48058.074    433.04767   -8298.8077    8.1711505 
  163000     1597.445    24513.841     48990.45    422.67678   -8296.1104    8.1757236 
  164000    1581.3105    24575.959    45173.276    418.40767   -8295.3779    8.1550586 
  165000    1621.5856     24495.68    51513.728    429.06429   -8292.0068    8.1817849 
  166000     1601.589    24449.183    54493.462    423.77327   -8289.8052    8.1973448 
  167000     1570.773     24499.45    47682.397    415.61949   -8301.9084    8.1805259 
  168000    1604.5607    24481.248    54509.063    424.55956   -8279.7955    8.1866083 
  169000    1635.6555    24470.304    50682.606     432.7871   -8303.5979    8.1902695 
  170000    1560.6015    24550.724    45730.787    412.92817   -8296.5143    8.1634411 
  171000    1601.1207    24526.326    49172.438    423.64935   -8290.2442    8.1715617 
  172000    1598.8461    24510.108    50115.624     423.0475   -8290.4151    8.1769687 
  173000    1562.8219    24523.257    49738.723    413.51566   -8284.4803    8.1725842 
  174000     1596.241    24459.941    49686.007     422.3582   -8311.5401    8.1937395 
  175000    1654.3285    24346.819    59763.099     437.7279   -8301.2165    8.2318099 
  176000    1596.2376    24525.265    50038.699     422.3573   -8287.8672    8.1719152 
  177000    1557.9318    24525.173    47306.303    412.22178   -8300.0832     8.171946 
  178000    1590.9058    24454.918    51724.793    420.94655   -8302.8471    8.1954225 
  179000    1607.3998    24481.001    51408.327    425.31079   -8294.8129    8.1866909 
  180000    1581.0499    24556.197    44854.544    418.33872   -8297.2498    8.1616216 
  181000    1592.9795    24529.523    46058.259    421.49523   -8302.7646    8.1704967 
  182000    1602.2953     24344.18    56683.749    423.96015   -8313.3613    8.2327022 
  183000    1604.9885    24483.016    48876.451    424.67276   -8304.4351     8.186017 
  184000    1565.0958    24538.919     48843.21    414.11732   -8286.1495    8.1673683 
  185000    1595.0095    24516.964     49754.24    422.03236    -8293.101    8.1746822 
  186000    1629.3142    24290.486    62765.317    431.10923   -8307.1475    8.2509008 
  187000    1607.0699    24525.044    46408.669    425.22349   -8308.7974     8.171989 
  188000    1575.1184    24503.547    47743.278    416.76927   -8305.6465     8.179158 
  189000    1568.8642    24511.811    50938.479    415.11443   -8285.4627    8.1764006 
  190000    1592.9098    24528.108     48661.04     421.4768   -8294.3531    8.1709679 
  191000    1620.0071    24531.477    49369.164    428.64662   -8288.5609     8.169846 
  192000     1622.062    24491.036    51274.807    429.19034    -8294.736    8.1833363 
  193000    1599.8722    24562.041    44382.505    423.31901   -8300.2552    8.1596798 
  194000    1613.4045    24431.142    48450.368    426.89958   -8325.8151    8.2033982 
  195000    1549.8364    24372.313    59843.629    410.07977   -8285.3477    8.2231991 
  196000    1572.3778    24672.113    41675.404    416.04411   -8279.4025    8.1232762 
  197000    1631.4486    24599.991    47458.743    431.67399   -8278.4656    8.1470917 
  198000    1639.9324    24467.175    52124.626    433.91875   -8297.0162    8.1913171 
  199000     1642.227    24481.787    50166.217    434.52591   -8303.5228    8.1864281 
  200000    1561.9202    24521.009    46449.169    413.27709   -8301.8369    8.1733336 
  201000    1595.2053    24541.033    50172.776    422.08418   -8283.5502    8.1666645 
  202000    1583.0187    24511.602    52473.795    418.85965   -8281.1348    8.1764702 
  203000    1599.6417    24586.016     46497.44    423.25801   -8281.3096    8.1517227 
  204000    1601.5455    24414.756    54083.816    423.76175   -8302.9519     8.208904 
  205000    1594.3097    24444.369    52142.578    421.84721   -8300.6791    8.1989592 
  206000    1589.9108    24517.135    48110.369    420.68326   -8298.5455    8.1746249 
  207000    1586.7091    24547.387     46182.58    419.83611    -8301.729    8.1645507 
  208000    1555.2127     24426.22    55092.284     411.5023   -8291.4316    8.2050512 
  209000    1588.3461    24555.097    46201.819    420.26925   -8291.9029    8.1619872 
  210000     1588.198    24543.899    48771.825    420.23008   -8286.5165    8.1657111 
  211000     1591.812    24429.603    53902.046    421.18632   -8296.2137    8.2039151 
  212000    1593.5099    24635.204    42488.532    421.63556   -8289.1208    8.1354467 
  213000    1606.4121    24530.694    49740.925    425.04943   -8288.2342    8.1701066 
  214000    1606.6431    24562.616    48781.606    425.11055   -8283.0025    8.1594887 
  215000    1604.9715    24540.733    47478.628    424.66827   -8292.6913    8.1667644 
  216000    1545.0336    24476.442    53734.626    408.80895   -8279.9505    8.1882156 
  217000    1656.7673     24411.51    55420.196     438.3732   -8298.4403    8.2099956 
  218000    1605.9202    24552.146    46393.273    424.91928   -8297.5254    8.1629681 
  219000    1565.1635    24551.579    45226.702    414.13525   -8303.0969    8.1631567 
  220000    1581.2123    24530.108    51280.328    418.38168   -8282.0716    8.1703017 
  221000    1612.3281    24463.796    53922.547    426.61478   -8288.7483    8.1924485 
  222000    1624.7738    24541.699    47485.939    429.90788   -8291.3407    8.1664432 
  223000    1652.0736    24571.094    48511.335    437.13127   -8282.8098    8.1566732 
  224000    1602.0965    24450.638    52997.115    423.90755   -8294.2055    8.1968572 
  225000    1573.8135     24505.98    52809.246    416.42399   -8276.9096    8.1783462 
  226000    1569.7202    24509.312    51195.673    415.34094    -8285.427    8.1772344 
  227000    1615.9619    24459.341    52154.103    427.57627   -8299.7652    8.1939407 
  228000    1632.5973    24597.164    45311.456    431.97792   -8289.4998    8.1480281 
  229000    1563.6901    24423.055     52718.47    413.74538   -8305.5698    8.2061146 
  230000    1612.6007     24416.74    54680.331    426.68691   -8300.3135    8.2082368 
  231000    1560.4767    24572.157    44706.219    412.89514   -8294.7656    8.1563206 
  232000    1587.3212    24532.101    50996.997    419.99807   -8282.5446     8.169638 
  233000    1616.4609    24464.729    54699.565    427.70832   -8284.5911    8.1921361 
  234000    1575.5707    24565.839    45773.271    416.88895   -8294.2704     8.158418 
  235000    1604.7455    24552.434    48030.994    424.60845   -8287.7442    8.1628726 
  236000    1622.9588    24504.817    47067.314    429.42762   -8307.2339    8.1787341 
  237000    1612.6602    24547.564    48821.584    426.70266   -8283.3471    8.1644918 
  238000    1566.2554    24477.177    48514.665    414.42415   -8306.8137    8.1879699 
  239000    1575.6076    24520.301    51879.721    416.89871   -8276.6218    8.1735695 
  240000    1625.7928    24415.548     53606.06    430.17749   -8306.3437    8.2086376 
  241000    1574.8103    24701.988     41893.48    416.68773   -8269.8358    8.1134516 
  242000    1592.9662    24533.948    47089.718    421.49171   -8300.5681     8.169023 
  243000    1613.0303    24447.494    54612.961     426.8006    -8292.778    8.1979112 
  244000    1607.7605    24496.587    50569.284    425.40621   -8295.6597    8.1814821 
  245000    1551.0535    24579.153    44169.836    410.40181   -8296.8566    8.1539988 
  246000    1626.1219    24476.446    51926.888    430.26456   -8295.3475    8.1882142 
  247000    1599.1004    24449.693    51897.293    423.11481   -8300.0919    8.1971739 
  248000      1663.52    24623.224    42084.987    440.15994   -8300.3479    8.1394046 
  249000    1595.3572    24475.868    50376.315    422.12437   -8298.6877    8.1884078 
  250000    1617.8216    24543.546    48105.885    428.06834   -8289.3382    8.1658286 
Loop time of 550.549 on 8 procs for 250000 steps with 2048 atoms

Performance: 39.234 ns/day, 0.612 hours/ns, 454.092 timesteps/s
113.0% CPU use with 4 MPI tasks x 2 OpenMP threads

MPI task timing breakdown:
Section |  min time  |  avg time  |  max time  |%varavg| %total
---------------------------------------------------------------
Pair    | 318.13     | 323.2      | 327.24     |  20.2 | 58.71
Neigh   | 3.9085     | 3.9188     | 3.9313     |   0.5 |  0.71
Comm    | 38.027     | 42.119     | 47.431     |  57.7 |  7.65
Output  | 0.011705   | 0.015704   | 0.017095   |   1.8 |  0.00
Modify  | 179.9      | 180.13     | 180.28     |   1.0 | 32.72
Other   |            | 1.164      |            |       |  0.21

Nlocal:        512.000 ave         516 max         506 min
Histogram: 1 0 0 0 0 0 1 0 1 1
Nghost:        2753.50 ave        2758 max        2751 min
Histogram: 2 0 0 0 1 0 0 0 0 1
Neighs:        39150.0 ave       40489 max       38355 min
Histogram: 2 0 0 0 1 0 0 0 0 1

Total # of neighbors = 156600
Ave neighs/atom = 76.464844
Neighbor list builds = 3990
Dangerous builds = 0


# fix 132 all momentum 100 linear 1 1 1 angular
fix out_file_1 all print 1000 "$(step) $(temp) $(press) ${sys_press} $(vol) $(ke) $(pe) $(density)" file one_phase_${sim}_press_$P_$T_.txt screen no title  "step temp press pressGiga vol ke pe density"
fix out_file_1 all print 1000 "$(step) $(temp) $(press) ${sys_press} $(vol) $(ke) $(pe) $(density)" file one_phase_cooling_press_$P_$T_.txt screen no title  "step temp press pressGiga vol ke pe density"
fix out_file_1 all print 1000 "$(step) $(temp) $(press) ${sys_press} $(vol) $(ke) $(pe) $(density)" file one_phase_cooling_press_50000_$T_.txt screen no title  "step temp press pressGiga vol ke pe density"
fix out_file_1 all print 1000 "$(step) $(temp) $(press) ${sys_press} $(vol) $(ke) $(pe) $(density)" file one_phase_cooling_press_50000_1600_.txt screen no title  "step temp press pressGiga vol ke pe density"

# dump 3 all custom 1000 traj_npt_new.lammpstrj id type x y z
run 50000
Last active /omp style is pair_style eam/alloy/omp
Per MPI rank memory allocation (min/avg/max) = 4.315 | 4.315 | 4.315 Mbytes
Step Temp Volume Press KinEng PotEng Density 
  250000    1617.8216    24543.546    48105.885    428.06834   -8289.3382    8.1658286 
  251000    1616.5241    24647.887    45599.219    427.72504    -8271.615    8.1312605 
  252000    1574.4197    24412.929    54084.095    416.58439   -8304.5404    8.2095184 
  253000    1599.9216    24487.731    49638.271    423.33208   -8299.4665    8.1844408 
  254000     1611.631    24545.976    47130.515    426.43034   -8297.6028    8.1650201 
  255000    1661.0655    24599.691     45954.55     439.5105   -8289.4446    8.1471914 
  256000    1597.2602    24456.991    53667.043    422.62788   -8293.3391    8.1947278 
  257000    1632.1346    24456.455    53587.399     431.8555   -8294.4436    8.1949075 
  258000    1558.7278     24608.69    44472.742    412.43238   -8285.9001     8.144212 
  259000    1585.5983    24477.227    52986.341    419.54221   -8285.0724    8.1879532 
  260000    1692.9421    24506.991      49436.3    447.94488   -8300.2359    8.1780086 
  261000    1590.3668    24518.525    49204.293    420.80393   -8291.4712    8.1741615 
  262000    1617.8076    24561.221    49675.359    428.06465   -8282.4707    8.1599522 
  263000    1618.7606    24541.777    49839.821    428.31679   -8282.4413    8.1664172 
  264000    1549.0061    24537.617    48414.025    409.86006   -8289.2084    8.1678015 
  265000    1609.2246    24471.124    51566.141    425.79361   -8291.1254    8.1899951 
  266000    1607.4751    24553.254    48356.074    425.33069   -8287.1446    8.1625999 
  267000    1591.5251    24496.847    48256.878    421.11042    -8304.464    8.1813951 
  268000    1583.9795    24476.587    53085.938    419.11388    -8286.395    8.1881672 
  269000    1601.4697    24566.479    47630.018    423.74169   -8287.1189    8.1582054 
  270000    1621.1518    24506.409    50178.214     428.9495   -8294.7622    8.1782028 
  271000    1580.0258    24548.384    48025.145    418.06775   -8289.0743     8.164219 
  272000     1581.098    24404.003    55606.733    418.35144   -8302.0663     8.212521 
  273000    1618.8783    24477.351    53937.049    428.34793   -8284.5957    8.1879116 
  274000    1561.8562    24492.617    48880.149    413.26015   -8302.9503    8.1828082 
  275000    1596.2665    24579.046    47396.735    422.36495   -8280.8916    8.1540345 
  276000    1589.2111    24466.558    54792.207    420.49813   -8282.9981    8.1915236 
  277000    1595.6053     24416.29    53626.065    422.19001   -8302.1455    8.2083883 
  278000    1557.6547    24529.872    45922.273    412.14844   -8301.1597    8.1703805 
  279000    1596.9774    24492.947    51167.752    422.55305   -8292.5062    8.1826979 
  280000    1589.7512    24385.231    57596.536    420.64103   -8294.1883     8.218843 
  281000    1592.1566    24562.527    45958.724    421.27749   -8296.3509    8.1595181 
  282000    1614.5634    24553.773    49350.422    427.20623   -8285.5067    8.1624273 
  283000    1612.0867    24474.923    52073.382    426.55091   -8291.9072    8.1887239 
  284000    1561.3878    24447.447    53693.987    413.13622   -8296.3228     8.197927 
  285000    1632.5343    24533.963    49565.104    431.96125   -8291.0594     8.169018 
  286000    1584.5142    24481.772    52046.895    419.25536   -8292.0723     8.186433 
  287000    1613.2647    24533.335      46700.5    426.86262   -8298.1932     8.169227 
  288000    1629.3772    24534.322    49020.595     431.1259   -8289.0342    8.1688986 
  289000    1629.8741    24409.903    53266.285    431.25738   -8311.3415    8.2105361 
  290000    1618.0692    24423.433    50936.181    428.13386   -8313.2901    8.2059876 
  291000    1526.7714    24609.819    42123.159    403.97685   -8294.9672    8.1438382 
  292000    1656.0935    24452.108    51901.686    438.19492   -8308.7396    8.1963644 
  293000    1618.9481     24421.99    53960.597    428.36641   -8302.6848    8.2064725 
  294000    1587.2855     24478.94    47351.586    419.98862   -8316.6394    8.1873799 
  295000    1613.4593    24513.645    47418.434    426.91409   -8300.0297     8.175789 
  296000    1564.9632    24332.614    59342.536    414.08224   -8302.8033    8.2366155 
  297000    1598.3264    24602.707    44700.244    422.91001   -8289.5441    8.1461925 
  298000    1619.0161    24562.467    46514.507     428.3844   -8294.6695    8.1595382 
  299000    1600.4616    24503.283    50611.304    423.47497   -8289.5107    8.1792463 
  300000    1601.9521     24530.38    48022.763    423.86935   -8298.5753    8.1702112 
Loop time of 115.685 on 8 procs for 50000 steps with 2048 atoms

Performance: 37.343 ns/day, 0.643 hours/ns, 432.206 timesteps/s
111.9% CPU use with 4 MPI tasks x 2 OpenMP threads

MPI task timing breakdown:
Section |  min time  |  avg time  |  max time  |%varavg| %total
---------------------------------------------------------------
Pair    | 67.066     | 67.846     | 68.632     |   7.9 | 58.65
Neigh   | 0.79581    | 0.80272    | 0.80834    |   0.5 |  0.69
Comm    | 7.9857     | 8.7624     | 9.5655     |  22.2 |  7.57
Output  | 0.0017334  | 0.0027709  | 0.0031598  |   1.1 |  0.00
Modify  | 37.989     | 38.009     | 38.028     |   0.3 | 32.86
Other   |            | 0.2625     |            |       |  0.23

Nlocal:        512.000 ave         517 max         507 min
Histogram: 1 0 1 0 0 0 0 0 1 1
Nghost:        2764.50 ave        2773 max        2747 min
Histogram: 1 0 0 0 0 0 0 1 0 2
Neighs:        39173.0 ave       40552 max       37783 min
Histogram: 1 1 0 0 0 0 0 0 1 1

Total # of neighbors = 156692
Ave neighs/atom = 76.509766
Neighbor list builds = 789
Dangerous builds = 0

unfix temp
unfix out_file_1


write_data after_${sim}_press_$P_$T.in
write_data after_cooling_press_$P_$T.in
write_data after_cooling_press_50000_$T.in
write_data after_cooling_press_50000_1600.in
System init for write_data ...
Last active /omp style is pair_style eam/alloy/omp
write_restart after_${sim}_press_$P_$T.lmp
write_restart after_cooling_press_$P_$T.lmp
write_restart after_cooling_press_50000_$T.lmp
write_restart after_cooling_press_50000_1600.lmp
System init for write_restart ...
Last active /omp style is pair_style eam/alloy/omp
next loopVar
jump in.lmp ensemble

print """
Label pachadi solti, hos garam.
"""

Label pachadi solti, hos garam.

variable T equal 1700-${loopVar}*100
variable T equal 1700-2*100
#variable T equal 1250
# velocity all create 1200 123123
reset_timestep 0
fix 1 all npt temp $T $T $(dt*100) iso $P $P $(dt*1000)
fix 1 all npt temp 1500 $T $(dt*100) iso $P $P $(dt*1000)
fix 1 all npt temp 1500 1500 $(dt*100) iso $P $P $(dt*1000)
fix 1 all npt temp 1500 1500 0.10000000000000000555 iso $P $P $(dt*1000)
fix 1 all npt temp 1500 1500 0.10000000000000000555 iso 50000 $P $(dt*1000)
fix 1 all npt temp 1500 1500 0.10000000000000000555 iso 50000 50000 $(dt*1000)
fix 1 all npt temp 1500 1500 0.10000000000000000555 iso 50000 50000 1
print """
<--------------------------------------------------------------------->
<------------------ Equilibrating at temperature $T ----------------->
<--------------------------------------------------------------------->
"""

<--------------------------------------------------------------------->
<------------------ Equilibrating at temperature 1500 ----------------->
<--------------------------------------------------------------------->

fix temp all print 1000 "$(step) $(temp) $(press) ${sys_press} $(vol) $(ke) $(pe) $(density)" file temp_${sim}.txt screen no title  "step temp press pressGiga vol ke pe density"
fix temp all print 1000 "$(step) $(temp) $(press) ${sys_press} $(vol) $(ke) $(pe) $(density)" file temp_cooling.txt screen no title  "step temp press pressGiga vol ke pe density"
run 250000
Last active /omp style is pair_style eam/alloy/omp
Per MPI rank memory allocation (min/avg/max) = 4.315 | 4.315 | 4.315 Mbytes
Step Temp Volume Press KinEng PotEng Density 
       0    1601.9521     24530.38    48022.763    423.86935   -8298.5753    8.1702112 
    1000    1511.0311    24281.068    53247.017    399.81205   -8343.1266    8.2541008 
    2000    1508.3733    24256.167    58000.354    399.10881   -8326.7652    8.2625745 
    3000    1495.8994    24334.377    49577.414    395.80828   -8341.7645    8.2360188 
    4000    1460.8821    24418.571    46364.531    386.54287   -8328.7735    8.2076215 
    5000    1552.7618    24423.759    46334.152    410.85382   -8331.5771    8.2058778 
    6000    1502.8186     24379.59    45963.828    397.63906   -8346.0857    8.2207447 
    7000     1553.808    24432.522    44560.149    411.13063   -8341.7691    8.2029347 
    8000    1534.7098    24367.876    52157.877    406.07733   -8326.7133    8.2246967 
    9000    1550.6648    24376.527    50672.207    410.29896   -8327.4806    8.2217778 
   10000    1472.9452    24440.687    45385.297     389.7347   -8332.6753    8.2001944 
   11000    1493.5354    24336.854    51551.294    395.18278   -8336.2325    8.2351806 
   12000    1519.5932     24333.26    53407.187    402.07754   -8323.1977    8.2363968 
   13000    1554.5827    24303.815     50403.71     411.3356   -8352.6234    8.2463756 
   14000    1469.8034    24435.739    44336.114    388.90339   -8337.3406    8.2018549 
   15000    1486.4924    24413.103    45393.345    393.31922   -8338.9917    8.2094598 
   16000    1535.7476    24357.639    50320.001    406.35194   -8339.4345    8.2281534 
   17000    1495.6901    24281.829    53187.547    395.75289   -8342.3565    8.2538424 
   18000    1490.7617    24344.371    50809.921    394.44885   -8335.8889    8.2326377 
   19000    1520.0449    24424.121    44503.038    402.19707   -8339.5894    8.2057562 
   20000    1462.1582    24445.781    43517.106    386.88051   -8332.4607    8.1984857 
   21000    1499.4594    24331.605    51380.078    396.75024   -8338.4183    8.2369569 
   22000    1467.8675    24268.265    56439.197    388.39117   -8328.9069    8.2584555 
   23000    1465.2416    24366.339    49861.317    387.69637   -8325.8976    8.2252155 
   24000    1519.1006    24386.602    49423.195     401.9472   -8332.3686    8.2183809 
   25000    1539.8045    24344.311    50071.595    407.42537   -8341.0163     8.232658 
   26000    1485.8432    24352.872    50285.177    393.14745   -8332.6672    8.2297637 
   27000    1497.5766     24259.76    54429.228    396.25207   -8340.9604    8.2613507 
   28000    1501.5844    24366.315    51012.296     397.3125    -8329.073    8.2252236 
   29000    1572.2254    24449.227    45882.414     416.0038   -8329.4571    8.1973303 
   30000    1513.4991    24341.867    49612.623    400.46509   -8339.9972    8.2334847 
   31000    1523.1844    24385.498    48944.708    403.02777   -8331.7812    8.2187531 
   32000    1511.2242    24415.218    47042.139    399.86314   -8333.0978    8.2087487 
   33000     1475.207    24325.139    50708.709    390.33316   -8339.9587    8.2391465 
   34000    1488.4746    24312.355    51371.785    393.84371     -8342.43     8.243479 
   35000    1549.0831    24334.658    54879.424    409.88045   -8323.0368    8.2359237 
   36000    1483.9017    24285.779    54895.904    392.63375   -8330.3711    8.2524998 
   37000    1462.3842    24361.773    46411.869     386.9403   -8344.6013     8.226757 
   38000    1489.3293    24355.224    50370.957    394.06985   -8335.1312     8.228969 
   39000    1463.2075    24287.431    52865.002    387.15815   -8341.3308    8.2519385 
   40000    1512.4536    24376.374    48982.813    400.18843   -8332.8196    8.2218292 
   41000    1503.9837    24384.187    46591.846    397.94734   -8339.6619    8.2191951 
   42000    1532.7279    24249.569    54283.666    405.55294   -8347.4029    8.2648225 
   43000    1557.8876    24412.762    47456.304    412.21007   -8331.2222    8.2095745 
   44000    1471.8779    24354.244    48819.185    389.45229   -8337.7658    8.2293001 
   45000    1470.0155    24190.491    58546.054    388.95951   -8341.5233    8.2850071 
   46000    1532.1508    24319.608    51906.882    405.40024   -8339.4941    8.2410206 
   47000    1515.1297    24351.558    47534.234    400.89653    -8348.354    8.2302078 
   48000    1539.5003    24393.618    47964.748    407.34487   -8334.0033    8.2160173 
   49000    1532.9741    24365.091    50680.781    405.61806   -8332.1165    8.2256366 
   50000    1485.0943    24217.284    57398.786     392.9493   -8344.5381    8.2758409 
   51000    1518.8209     24440.37    50110.315     401.8732   -8312.0038    8.2003007 
   52000    1478.3395    24398.604    47480.998    391.16201   -8334.8064    8.2143382 
   53000    1485.6989    24404.991    47404.951    393.10927   -8332.5622    8.2121885 
   54000    1489.8653    24293.966     54492.23    394.21169   -8330.2705    8.2497187 
   55000    1512.5769    24257.787    55516.404    400.22106   -8342.6982    8.2620226 
   56000    1487.3439    24310.018    53260.867    393.54452   -8330.2104    8.2442713 
   57000    1463.6722    24471.007    42579.387     387.2811   -8328.5099    8.1900344 
   58000    1483.6211    24427.237    45383.483    392.55948   -8330.8213    8.2047095 
   59000    1544.3545    24322.284    51412.003    408.62927   -8339.1361    8.2401138 
   60000    1483.6888    24253.246    53883.336    392.57742   -8347.8492    8.2635697 
   61000    1530.7832    24385.528    51146.307    405.03838   -8322.9875    8.2187429 
   62000    1472.1889     24368.74    48352.352    389.53459   -8338.1683    8.2244051 
   63000    1517.0656    24483.194    42424.175    401.40875   -8332.9008    8.1859576 
   64000    1496.2124    24332.398    49999.767     395.8911   -8339.5733    8.2366887 
   65000    1502.6966    24292.213    53817.614    397.60677   -8335.4885    8.2503139 
   66000    1520.2036    24392.874    50006.556    402.23906   -8324.2513    8.2162679 
   67000    1483.7472    24336.876    48915.229    392.59285   -8345.1349    8.2351732 
   68000    1477.2865    24386.742    47460.286    390.88339   -8333.7757    8.2183339 
   69000    1531.4645    24439.127    47807.858    405.21865   -8323.8768    8.2007178 
   70000    1502.8916    24309.235    51911.213    397.65839   -8336.7557    8.2445371 
   71000    1501.4029    24317.136    55450.648    397.26449   -8324.1487    8.2418582 
   72000    1523.2815     24328.42    49252.465    403.05346   -8348.4911    8.2380355 
   73000     1522.537    24395.665    48627.887    402.85646   -8329.6541    8.2153278 
   74000    1499.6581    24392.596    48223.015     396.8028    -8332.499    8.2163616 
   75000    1534.3229    24406.812    47850.904    405.97497   -8333.1788    8.2115757 
   76000    1478.7359    24344.607    48750.193    391.26688   -8342.9236    8.2325579 
   77000    1495.7643    24321.486    51764.127    395.77254   -8340.3978    8.2403841 
   78000    1480.4958    24354.018    48857.952    391.73255   -8341.7205    8.2293768 
   79000    1523.0807    24349.202    50649.122    403.00034   -8336.4943    8.2310044 
   80000    1547.4075    24289.407    54859.475    409.43708   -8339.1657    8.2512671 
   81000    1518.0216     24326.49    54192.885    401.66171   -8325.8439    8.2386891 
   82000     1428.212    24371.777    48304.601     377.8985   -8333.8916      8.22338 
   83000    1527.9552    24432.424    43573.047    404.29009   -8338.9899    8.2029678 
   84000    1515.5038    24315.913    50063.073    400.99551   -8346.6955    8.2422726 
   85000     1510.727    24347.171    52191.159    399.73158    -8331.416    8.2316908 
   86000    1492.7863    24346.746    48408.263    394.98457   -8346.0773    8.2318345 
   87000    1492.8787    24395.954    48070.627    395.00902   -8328.6233    8.2152305 
   88000    1491.8568    24287.903    51706.615    394.73862   -8347.9879     8.251778 
   89000    1529.0638    24289.619    55701.304    404.58344   -8327.8049    8.2511952 
   90000    1473.9922    24354.803    49075.867    390.01172   -8337.4604    8.2291115 
   91000    1464.6418    24393.159    43473.216    387.53766   -8351.9021    8.2161717 
   92000    1485.8994     24416.68    46309.416    393.16232   -8331.1707     8.208257 
   93000    1521.4986    24293.644    56230.194    402.58172   -8326.9901    8.2498281 
   94000    1511.9637    24346.704    51737.426     400.0588   -8328.5696    8.2318489 
   95000    1437.4312    24327.994    51471.633    380.33786   -8332.1017    8.2381797 
   96000    1527.1429    24379.929    47822.583    404.07517   -8337.8316    8.2206305 
   97000    1543.4117    24437.976    45670.962    408.37982   -8328.3471    8.2011042 
   98000    1516.1068    24490.475    41134.393    401.15506   -8334.5044     8.183524 
   99000    1547.8755    24329.843    53033.549    409.56092   -8333.0706    8.2375538 
  100000    1492.9866    24280.318    56913.894    395.03757   -8327.8571    8.2543558 
  101000    1517.8249    24366.148    48728.209    401.60967   -8338.8162    8.2252799 
  102000    1507.2208    24397.069    50416.818    398.80387   -8316.9702    8.2148551 
  103000    1513.0245    24295.211    52084.179    400.33951   -8345.0865     8.249296 
  104000    1507.4821    24320.432      52492.3    398.87301   -8331.5891    8.2407411 
  105000    1503.6819    24419.138    45172.922    397.86748   -8337.2719    8.2074307 
  106000    1488.9819    24456.899    44389.789    393.97792   -8331.0482    8.1947586 
  107000    1482.5362    24383.664    52075.705    392.27242   -8314.0275    8.2193713 
  108000     1488.878    24275.663    54803.728    393.95045   -8339.8505    8.2559389 
  109000    1503.1136    24381.231    49449.515    397.71713   -8327.8832    8.2201913 
  110000    1537.6936    24353.869    47790.986    406.86683   -8346.2241     8.229427 
  111000    1539.5384    24404.886    45529.452    407.35496   -8342.6211    8.2122239 
  112000    1464.1051    24431.817    46369.999    387.39565   -8326.4411    8.2031717 
  113000    1515.1131    24342.099    52308.695    400.89213   -8328.5397     8.233406 
  114000    1531.8977    24332.228    53622.998    405.33325   -8327.5451    8.2367461 
  115000    1489.1365    24368.345    48987.273    394.01884   -8335.6908    8.2245382 
  116000    1440.7031    24445.398    46747.205    381.20358   -8320.0762    8.1986143 
  117000    1533.0489    24263.752     56676.82    405.63785   -8334.7915    8.2599917 
  118000    1477.9375    24297.099    53222.108    391.05564    -8334.338    8.2486548 
  119000    1479.7901    24337.762    53194.487    391.54583   -8324.2343    8.2348733 
  120000    1518.1204    24324.996    51561.004    401.68784   -8337.1365    8.2391952 
  121000    1440.5984    24316.002    54819.322    381.17587   -8322.4838    8.2422425 
  122000    1459.9925    24315.092    54025.458    386.30748   -8328.9372     8.242551 
  123000    1489.4882    24413.518     49132.29     394.1119   -8321.2034    8.2093203 
  124000    1502.9712    24456.589    44537.512    397.67944   -8330.3319    8.1948625 
  125000     1552.413     24443.09    46294.546    410.76152   -8327.6755    8.1993883 
  126000    1516.9091    24350.421    51464.806    401.36734   -8333.5846    8.2305923 
  127000    1463.5105    24384.783    48665.948    387.23832    -8327.193    8.2189939 
  128000    1507.1016    24353.535    48191.472    398.77233   -8343.7998    8.2295398 
  129000    1483.3169    24273.087    55854.484      392.479   -8331.3111    8.2568148 
  130000    1527.0013    24386.246    51776.541     404.0377   -8319.2501    8.2185011 
  131000    1498.5768    24360.557      50841.7    396.51671   -8328.8557    8.2271676 
  132000    1460.9871     24333.72    53125.309    386.57063   -8326.1591    8.2362411 
  133000    1522.9345    24358.984    48357.796    402.96164    -8341.983    8.2276989 
  134000    1493.6082    24369.351    46382.488    395.20203   -8348.7949    8.2241986 
  135000    1526.9936    24382.981    46153.096    404.03565   -8347.7147    8.2196014 
  136000    1507.2759    24255.387    58278.205    398.81843    -8328.664    8.2628402 
  137000    1492.7154    24290.475    53082.837    394.96579   -8339.6516    8.2509043 
  138000    1479.4487    24363.147    49195.452     391.4555   -8333.2455     8.226293 
  139000    1483.7027    24351.718    51093.434     392.5811   -8333.5321    8.2301538 
  140000     1550.432    24478.608    44363.693    410.23736   -8323.9081    8.1874911 
  141000    1495.7197    24275.786    53956.888    395.76072   -8340.0364    8.2558968 
  142000    1495.0571    24239.336    56113.851    395.58541   -8341.3061    8.2683119 
  143000    1481.1337     24255.95    52655.145    391.90133   -8352.9025    8.2626482 
  144000    1490.1976    24441.327    42717.388    394.29959   -8341.2187    8.1999798 
  145000    1534.9583    24321.492     53052.33    406.14307   -8334.8075     8.240382 
  146000    1527.6993    24328.756    51063.745    404.22238    -8340.085    8.2379216 
  147000    1527.2194    24423.402    48790.992    404.09541   -8319.8098     8.205998 
  148000    1512.2672    24411.684    45838.638    400.13913   -8338.5281    8.2099368 
  149000    1546.6059     24436.37    46630.397    409.22498   -8330.4833     8.201643 
  150000    1558.4016    24375.605    49124.294    412.34606   -8338.8941    8.2220886 
  151000     1502.327    24348.071    48028.227    397.50899   -8347.0342    8.2313867 
  152000    1454.0062    24466.062    45610.173    384.72352    -8320.587    8.1916896 
  153000    1502.4003    24414.439    45419.547    397.52837   -8339.0693    8.2090106 
  154000    1473.3887    24276.617    55686.068    389.85204    -8335.745    8.2556143 
  155000    1488.2072    24405.706    49769.825    393.77296   -8318.4981    8.2119477 
  156000     1474.829     24324.11    49510.865    390.23314   -8345.5037    8.2394952 
  157000    1534.2403    24398.114    47855.712    405.95311    -8335.703    8.2145032 
  158000    1488.9952    24282.547    57414.243    393.98146   -8323.0263    8.2535982 
  159000    1518.6569    24237.569    58197.847    401.82982   -8335.5401    8.2689144 
  160000     1438.319    24358.249    50976.366    380.57275   -8327.6258    8.2279471 
  161000    1540.2852    24392.547    49940.085    407.55255    -8326.964     8.216378 
  162000    1507.8673    24306.964    51818.016    398.97492   -8337.6936    8.2453072 
  163000     1468.262    24192.667     58889.05    388.49554   -8345.1758    8.2842617 
  164000    1540.9811    24325.494    52846.315    407.73668   -8334.9688    8.2390265 
  165000    1504.7592    24442.514    43853.466    398.15254   -8333.8673    8.1995816 
  166000    1488.3299    24366.308    48440.169    393.80543   -8337.5307    8.2252258 
  167000    1484.0507    24301.198    54694.073    392.67316   -8330.7152    8.2472637 
  168000    1516.4412    24348.271    49943.347    401.24355    -8337.552    8.2313191 
  169000    1493.5759    24399.693    45745.414    395.19349   -8340.8353    8.2139715 
  170000    1445.9045    24319.504    50178.281    382.57984   -8341.7275    8.2410556 
  171000    1562.1383    24258.231    56055.569    413.33479   -8338.8301    8.2618716 
  172000    1465.9156    24315.723    50433.871    387.87469   -8340.3731    8.2423372 
  173000    1455.6326    24324.668     48937.62    385.15387   -8347.6548    8.2393062 
  174000    1494.0069    24373.668    48151.943    395.30752    -8340.247    8.2227422 
  175000     1497.947    24325.228     52639.78    396.35007   -8328.5863    8.2391163 
  176000    1493.8474    24331.018    50149.031    395.26532   -8342.4396    8.2371557 
  177000    1564.1542    24263.267    56953.693    413.86818   -8334.9751    8.2601568 
  178000    1539.1817    24342.758    49824.227    407.26058   -8342.8348    8.2331832 
  179000    1501.0362    24387.936    47246.945    397.16746   -8334.3979    8.2179315 
  180000    1508.7113     24281.02    51547.138    399.19825   -8350.4049    8.2541173 
  181000     1500.964    24401.588    49104.428    397.14834    -8325.143    8.2133337 
  182000    1484.5642    24421.283    44782.001    392.80903   -8337.9687    8.2067099 
  183000    1484.0922    24413.836    48935.248    392.68415    -8321.304    8.2092132 
  184000    1527.2868    24346.686    47789.749    404.11323   -8348.3905    8.2318548 
  185000    1503.2008    24353.454    49000.371    397.74018   -8338.0815    8.2295671 
  186000    1493.6779    24420.103    44916.364    395.22046   -8342.1266    8.2071066 
  187000    1508.2273    24243.185    56922.157    399.07017   -8335.4863    8.2669991 
  188000    1520.6507    24216.398    55930.806    402.35735   -8352.5823    8.2761435 
  189000    1486.7751    24373.612    48946.651    393.39402   -8334.7744    8.2227611 
  190000    1476.8076    24375.913    48259.362    390.75667   -8331.8666    8.2219847 
  191000     1486.998     24378.01    50309.043      393.453   -8323.1285    8.2212777 
  192000    1477.6348    24337.894    48556.142    390.97555   -8346.8691    8.2348288 
  193000    1535.3617    24370.936    51004.287    406.24982   -8326.5578     8.223664 
  194000     1462.619    24197.608    62494.917    387.00243    -8324.152    8.2825703 
  195000    1521.0223    24356.477    48708.457    402.45569   -8339.4738    8.2285458 
  196000    1493.8425    24323.139    51570.613    395.26403   -8339.1223    8.2398242 
  197000    1491.2162     24382.97    50070.914    394.56913   -8323.3534    8.2196053 
  198000    1468.8235    24410.458    45025.739    388.64411   -8337.4407    8.2103493 
  199000    1533.6295    24327.384    49440.189    405.79149   -8345.3831    8.2383862 
  200000    1538.3426    24317.675    53635.715    407.03855   -8327.8029    8.2416755 
  201000    1528.8203      24389.4    47798.166    404.51899   -8335.1302    8.2174382 
  202000    1450.1493    24390.308    47496.993      383.703   -8331.9038    8.2171322 
  203000    1457.1508    24414.711    44048.031    385.55556   -8342.7257    8.2089189 
  204000    1501.4104    24371.033    47549.818    397.26647   -8339.9913    8.2236312 
  205000    1569.4212    24385.878    47152.107     415.2618   -8340.0979    8.2186251 
  206000     1521.292    24343.933    50758.666    402.52703   -8335.1494    8.2327857 
  207000    1472.0266    24287.776    55159.891    389.49163   -8329.3506    8.2518213 
  208000    1469.0549    24299.134    52805.436    388.70534   -8337.1795    8.2479642 
  209000    1474.3123    24438.985    44149.489    390.09642   -8338.8923    8.2007657 
  210000    1545.4738    24318.482    51843.535    408.92543    -8340.729    8.2414021 
  211000    1525.4059    24307.015    53524.811    403.61556   -8334.5747      8.24529 
  212000     1498.978    24359.927    49782.355    396.62285   -8336.2606    8.2273805 
  213000    1470.9496    24396.099    45595.268    389.20667   -8336.8117    8.2151817 
  214000    1553.1239    24355.832    50342.115    410.94962   -8336.8597    8.2287636 
  215000    1548.8403    24216.575    59181.491    409.81621   -8337.7983    8.2760829 
  216000    1483.2189    24304.127    51806.028    392.45307   -8340.3538    8.2462697 
  217000    1494.0444    24463.036    44912.565    395.31745   -8324.2494     8.192703 
  218000    1473.4536    24312.395    52100.948    389.86923   -8336.5034    8.2434652 
  219000    1521.3931    24350.472     52050.61     402.5538   -8327.6579     8.230575 
  220000    1461.6164     24384.22     48400.94    386.73714   -8331.6973    8.2191839 
  221000    1490.2166    24318.164    51489.294    394.30464   -8335.4513    8.2415096 
  222000    1509.3871    24370.772    51470.485    399.37707   -8326.6771    8.2237193 
  223000    1472.1399    24320.737    50807.889     389.5216   -8339.3447    8.2406379 
  224000    1545.4718    24328.838    52620.966    408.92491   -8335.4438    8.2378938 
  225000    1513.9092    24338.841    52363.104    400.57358   -8329.2383    8.2345082 
  226000    1494.3561    24387.438    46220.742    395.39993   -8342.9327    8.2180993 
  227000    1490.3097    24343.742    52319.078    394.32927    -8325.859    8.2328503 
  228000    1524.5279    24365.317    51106.919    403.38324   -8329.1113    8.2255603 
  229000    1494.4427    24383.731    46168.554    395.42283   -8345.9955    8.2193486 
  230000     1525.356     24333.01    51708.255    403.60237   -8334.6217    8.2364813 
  231000    1491.0757    24403.667    49522.731    394.53195    -8321.887    8.2126341 
  232000    1498.3579    24316.528    52156.534    396.45879   -8337.7159    8.2420642 
  233000    1518.2374    24351.242    49315.593    401.71881   -8339.6921    8.2303149 
  234000    1471.0072     24370.55    48821.848     389.2219   -8335.2009     8.223794 
  235000    1469.2693    24345.349    54362.667    388.76206   -8318.3296    8.2323071 
  236000    1503.5675    24364.869    48074.799    397.83722   -8339.1208    8.2257118 
  237000    1456.9428    24401.641    44725.745    385.50054   -8345.2212    8.2133159 
  238000     1503.082     24293.04    52237.996    397.70875   -8340.8031    8.2500332 
  239000     1499.791    24311.189    55422.069    396.83796    -8326.783    8.2438743 
  240000    1520.6822    24421.981    46840.395    402.36569   -8331.8274    8.2064752 
  241000    1474.0043    24406.629    43456.595    390.01492    -8346.377    8.2116373 
  242000    1461.9043    24376.312    47786.349    386.81331   -8337.4128    8.2218501 
  243000    1508.2269    24327.286    52611.563    399.07009   -8329.6549    8.2384194 
  244000    1537.5459    24302.973    55210.669    406.82774   -8331.2755    8.2466613 
  245000    1509.4679    24360.335    49250.051    399.39843   -8338.0858    8.2272427 
  246000    1500.9744    24358.878    48405.253    397.15111   -8343.8614    8.2277348 
  247000    1504.5473    24280.943    57517.817    398.09648   -8324.7821    8.2541434 
  248000     1487.956    24285.085    56308.201     393.7065   -8326.3378    8.2527355 
  249000    1468.1303    24398.128    46004.429    388.46069   -8336.8667    8.2144986 
  250000    1467.9719    24342.297     50478.91    388.41879   -8334.7397    8.2333391 
Loop time of 564.435 on 8 procs for 250000 steps with 2048 atoms

Performance: 38.268 ns/day, 0.627 hours/ns, 442.921 timesteps/s
114.9% CPU use with 4 MPI tasks x 2 OpenMP threads

MPI task timing breakdown:
Section |  min time  |  avg time  |  max time  |%varavg| %total
---------------------------------------------------------------
Pair    | 327.26     | 331.41     | 335.77     |  19.4 | 58.71
Neigh   | 3.8404     | 3.8666     | 3.8885     |   0.9 |  0.69
Comm    | 34.083     | 38.369     | 42.648     |  57.1 |  6.80
Output  | 0.0069155  | 0.013154   | 0.015239   |   3.1 |  0.00
Modify  | 189.49     | 189.62     | 189.74     |   0.8 | 33.60
Other   |            | 1.156      |            |       |  0.20

Nlocal:        512.000 ave         517 max         508 min
Histogram: 1 0 1 0 0 1 0 0 0 1
Nghost:        2773.75 ave        2783 max        2769 min
Histogram: 2 0 1 0 0 0 0 0 0 1
Neighs:        39418.5 ave       40688 max       38150 min
Histogram: 2 0 0 0 0 0 0 0 0 2

Total # of neighbors = 157674
Ave neighs/atom = 76.989258
Neighbor list builds = 3791
Dangerous builds = 0


# fix 132 all momentum 100 linear 1 1 1 angular
fix out_file_1 all print 1000 "$(step) $(temp) $(press) ${sys_press} $(vol) $(ke) $(pe) $(density)" file one_phase_${sim}_press_$P_$T_.txt screen no title  "step temp press pressGiga vol ke pe density"
fix out_file_1 all print 1000 "$(step) $(temp) $(press) ${sys_press} $(vol) $(ke) $(pe) $(density)" file one_phase_cooling_press_$P_$T_.txt screen no title  "step temp press pressGiga vol ke pe density"
fix out_file_1 all print 1000 "$(step) $(temp) $(press) ${sys_press} $(vol) $(ke) $(pe) $(density)" file one_phase_cooling_press_50000_$T_.txt screen no title  "step temp press pressGiga vol ke pe density"
fix out_file_1 all print 1000 "$(step) $(temp) $(press) ${sys_press} $(vol) $(ke) $(pe) $(density)" file one_phase_cooling_press_50000_1500_.txt screen no title  "step temp press pressGiga vol ke pe density"

# dump 3 all custom 1000 traj_npt_new.lammpstrj id type x y z
run 50000
Last active /omp style is pair_style eam/alloy/omp
Per MPI rank memory allocation (min/avg/max) = 4.315 | 4.315 | 4.315 Mbytes
Step Temp Volume Press KinEng PotEng Density 
  250000    1467.9719    24342.297     50478.91    388.41879   -8334.7397    8.2333391 
  251000    1487.5776    24401.299     50241.45    393.60637   -8320.0605    8.2134309 
  252000    1503.2848    24410.417    48747.429    397.76242   -8325.1445    8.2103629 
  253000     1538.393      24340.9    51621.469     407.0519   -8330.5758    8.2338117 
  254000    1562.6852    24390.994     51231.92    413.47951    -8321.207    8.2169011 
  255000    1518.6587    24363.681    52661.091    401.83028   -8320.3798    8.2261129 
  256000    1484.1973    24360.897    49606.732    392.71194   -8335.2533    8.2270529 
  257000    1528.3382    24407.797    48986.729    404.39143   -8326.6358    8.2112445 
  258000    1481.0852    24250.516    57645.909    391.88849   -8332.0669    8.2644999 
  259000    1509.6147    24339.662    50498.134    399.43729   -8336.0632    8.2342303 
  260000    1498.1209     24444.52    45919.136    396.39609    -8326.476    8.1989088 
  261000    1538.1807    24340.837     51716.56    406.99573   -8333.2462    8.2338328 
  262000    1473.8173    24300.044    54020.799    389.96544   -8329.4668    8.2476553 
  263000     1461.993    24340.809    53429.901     386.8368   -8324.0801    8.2338423 
  264000    1506.1764    24488.702    41314.249    398.52752   -8338.2702    8.1841165 
  265000    1485.5731    24436.681    46090.012    393.07597   -8324.2583    8.2015389 
  266000    1533.1642    24384.437    48735.497    405.66836   -8330.6679    8.2191108 
  267000     1555.369    24360.565    48967.014    411.54367   -8338.8763     8.227165 
  268000    1520.4363    24397.294     48400.83    402.30062   -8330.2167    8.2147793 
  269000    1480.3241    24357.298    48023.832    391.68713   -8342.7214    8.2282686 
  270000    1560.6133    24302.304    55524.925    412.93127   -8329.4551    8.2468885 
  271000    1507.7455     24239.11    56591.354     398.9427   -8341.0312     8.268389 
  272000    1547.2413    24383.959    49472.163    409.39312   -8330.3117    8.2192719 
  273000    1475.8762    24362.363    49862.109    390.51023   -8329.1904    8.2265576 
  274000    1513.0097    24495.523    42703.613    400.33558   -8328.4153    8.1818374 
  275000    1503.7843    24326.711    49164.245    397.89459   -8346.7033    8.2386141 
  276000    1504.5665    24286.882    57138.439    398.10154   -8324.2112    8.2521251 
  277000    1471.7934     24233.35    58124.815    389.42993   -8331.2815     8.270354 
  278000    1476.9005    24284.658    49772.448    390.78126   -8354.4363    8.2528806 
  279000    1494.5508     24362.88    47518.423    395.45145   -8343.3964    8.2263831 
  280000    1507.7715    24381.259    48271.293    398.94959   -8336.2183    8.2201819 
  281000    1457.5308    24310.822    52551.261    385.65611   -8333.0845    8.2439986 
  282000    1479.8976    24259.602    56210.628    391.57426   -8333.3717    8.2614047 
  283000    1490.4543    24351.364    50274.813    394.36751   -8332.5636    8.2302737 
  284000    1481.1429    24424.147    48293.698    391.90378    -8321.357    8.2057476 
  285000    1489.3135    24251.164    53614.736    394.06568   -8348.7106    8.2642789 
  286000    1502.3871    24389.254    48328.011    397.52489   -8330.5191    8.2174875 
  287000    1493.7151    24372.855    47305.821    395.23031   -8343.1933    8.2230163 
  288000    1537.2982    24309.883    53516.053     406.7622   -8330.7581    8.2443171 
  289000    1501.4461     24333.68    49601.567    397.27591   -8342.9012    8.2362547 
  290000    1465.2299     24402.06    48859.434    387.69325   -8324.5033    8.2131749 
  291000    1486.8659     24312.33    53793.169    393.41806   -8327.5735    8.2434873 
  292000    1513.1288    24312.429    55337.939    400.36711   -8325.4709     8.243454 
  293000     1503.485    24455.661    46924.293    397.81539   -8318.0492    8.1951735 
  294000    1513.4691    24457.248    44845.676    400.45715   -8328.8944    8.1946419 
  295000    1497.7926    24366.617    49737.746    396.30921   -8334.2662    8.2251215 
  296000    1514.3931    24196.297    56671.108    400.70162   -8350.2459    8.2830188 
  297000    1524.8363    24316.012     53113.22    403.46485   -8336.4794    8.2422392 
  298000    1525.4685    24432.994    43982.231    403.63213    -8339.487    8.2027764 
  299000    1525.6354    24402.544    46489.268     403.6763   -8338.9158    8.2130118 
  300000    1487.5253    24276.384    52184.701    393.59251   -8350.3419    8.2556936 
Loop time of 99.3078 on 8 procs for 50000 steps with 2048 atoms

Performance: 43.501 ns/day, 0.552 hours/ns, 503.485 timesteps/s
118.2% CPU use with 4 MPI tasks x 2 OpenMP threads

MPI task timing breakdown:
Section |  min time  |  avg time  |  max time  |%varavg| %total
---------------------------------------------------------------
Pair    | 57.425     | 57.982     | 58.6       |   7.2 | 58.39
Neigh   | 0.69307    | 0.70024    | 0.71008    |   0.8 |  0.71
Comm    | 4.5546     | 5.1671     | 5.7489     |  24.6 |  5.20
Output  | 0.0011151  | 0.0017948  | 0.002026   |   0.9 |  0.00
Modify  | 35.262     | 35.282     | 35.309     |   0.3 | 35.53
Other   |            | 0.1745     |            |       |  0.18

Nlocal:        512.000 ave         517 max         507 min
Histogram: 1 0 0 1 0 0 0 1 0 1
Nghost:        2755.25 ave        2768 max        2744 min
Histogram: 1 0 1 0 0 1 0 0 0 1
Neighs:        39515.2 ave       40492 max       38219 min
Histogram: 1 0 0 0 1 0 0 0 1 1

Total # of neighbors = 158061
Ave neighs/atom = 77.178223
Neighbor list builds = 755
Dangerous builds = 0

unfix temp
unfix out_file_1


write_data after_${sim}_press_$P_$T.in
write_data after_cooling_press_$P_$T.in
write_data after_cooling_press_50000_$T.in
write_data after_cooling_press_50000_1500.in
System init for write_data ...
Last active /omp style is pair_style eam/alloy/omp
write_restart after_${sim}_press_$P_$T.lmp
write_restart after_cooling_press_$P_$T.lmp
write_restart after_cooling_press_50000_$T.lmp
write_restart after_cooling_press_50000_1500.lmp
System init for write_restart ...
Last active /omp style is pair_style eam/alloy/omp
next loopVar
jump in.lmp ensemble

print """
Label pachadi solti, hos garam.
"""

Label pachadi solti, hos garam.

variable T equal 1700-${loopVar}*100
variable T equal 1700-3*100
#variable T equal 1250
# velocity all create 1200 123123
reset_timestep 0
fix 1 all npt temp $T $T $(dt*100) iso $P $P $(dt*1000)
fix 1 all npt temp 1400 $T $(dt*100) iso $P $P $(dt*1000)
fix 1 all npt temp 1400 1400 $(dt*100) iso $P $P $(dt*1000)
fix 1 all npt temp 1400 1400 0.10000000000000000555 iso $P $P $(dt*1000)
fix 1 all npt temp 1400 1400 0.10000000000000000555 iso 50000 $P $(dt*1000)
fix 1 all npt temp 1400 1400 0.10000000000000000555 iso 50000 50000 $(dt*1000)
fix 1 all npt temp 1400 1400 0.10000000000000000555 iso 50000 50000 1
print """
<--------------------------------------------------------------------->
<------------------ Equilibrating at temperature $T ----------------->
<--------------------------------------------------------------------->
"""

<--------------------------------------------------------------------->
<------------------ Equilibrating at temperature 1400 ----------------->
<--------------------------------------------------------------------->

fix temp all print 1000 "$(step) $(temp) $(press) ${sys_press} $(vol) $(ke) $(pe) $(density)" file temp_${sim}.txt screen no title  "step temp press pressGiga vol ke pe density"
fix temp all print 1000 "$(step) $(temp) $(press) ${sys_press} $(vol) $(ke) $(pe) $(density)" file temp_cooling.txt screen no title  "step temp press pressGiga vol ke pe density"
run 250000
Last active /omp style is pair_style eam/alloy/omp
Per MPI rank memory allocation (min/avg/max) = 4.315 | 4.315 | 4.315 Mbytes
Step Temp Volume Press KinEng PotEng Density 
       0    1487.5253    24276.384    52184.701    393.59251   -8350.3419    8.2556936 
    1000    1376.4324    24128.016    57590.379    364.19784   -8363.5673    8.3064593 
    2000    1427.2807    24165.594    52249.352    377.65207   -8379.1337    8.2935427 
    3000    1410.1547    24312.373    41584.287    373.12062   -8381.5842    8.2434727 
    4000    1400.7591    24279.379    44721.521    370.63458   -8377.2252    8.2546752 
    5000    1402.9916    24238.246     48284.32    371.22529   -8375.6916    8.2686835 
    6000    1424.5451    24207.827    49206.443    376.92826    -8380.887    8.2790737 
    7000    1346.5518     24158.12    51696.232    356.29156   -8381.1836    8.2961084 
    8000    1417.2058     24140.53     55294.67     374.9863   -8372.9342    8.3021534 
    9000    1441.4537     24162.98    54179.731     381.4022   -8372.1439      8.29444 
   10000    1404.0648    24214.651    50687.555    371.50926   -8370.3113    8.2767407 
   11000    1382.4165    24238.584    49893.706    365.78121   -8364.8235    8.2685683 
   12000    1368.2738    24242.281    48779.347    362.03911   -8371.3681    8.2673074 
   13000    1388.9435    24185.378    53250.309    367.50822   -8365.5857    8.2867584 
   14000    1435.8359    24146.599    54750.302    379.91575    -8374.746    8.3000669 
   15000    1434.3678     24154.32    52170.203    379.52728   -8382.2796    8.2974139 
   16000    1376.0876    24156.151    53703.694     364.1066   -8375.0003    8.2967848 
   17000    1417.1551    24263.911    50539.392    374.97287   -8355.1653    8.2599373 
   18000    1389.7883    24167.139    50989.387    367.73174   -8382.4616    8.2930126 
   19000    1393.2446    24156.477    48950.254    368.64629    -8395.931    8.2966729 
   20000    1368.4492    24197.587    51486.211    362.08554   -8368.5578    8.2825775 
   21000    1374.9491    24241.606    49234.841    363.80538   -8371.1925    8.2675375 
   22000    1393.7817    24259.217    46192.979     368.7884   -8377.6233    8.2615355 
   23000    1398.3685    24282.714     44184.96    370.00205   -8381.8446    8.2535415 
   24000    1411.6929    24206.957    50293.386     373.5276   -8376.1704    8.2793713 
   25000    1454.6113    24198.672    50822.674    384.88362    -8376.801     8.282206 
   26000    1398.4635    24213.156    49763.103    370.02717   -8373.9718    8.2772516 
   27000    1376.4737    24256.101    48087.591    364.20877   -8368.7185     8.262597 
   28000    1419.6596    24331.929    42911.539    375.63555   -8366.1647    8.2368474 
   29000    1348.8601    24278.651    44612.422    356.90234   -8374.5634    8.2549226 
   30000    1410.3002    24220.057    51611.179    373.15911   -8364.4558    8.2748931 
   31000    1413.1346    24160.557    53337.954    373.90907   -8379.4554    8.2952719 
   32000    1422.3437    24187.536    51961.622    376.34577    -8376.615    8.2860192 
   33000    1397.4368    24237.231    47460.862    369.75551   -8379.2154    8.2690298 
   34000    1374.0799    24230.062    46851.605    363.57538   -8379.2796    8.2714763 
   35000    1393.2415    24350.944    40460.248    368.64544    -8374.348    8.2304156 
   36000     1388.495    24233.892    48959.912    367.38955   -8369.7487    8.2701692 
   37000    1381.1274     24175.53    52990.971    365.44012   -8371.0575     8.290134 
   38000    1412.2618    24237.802     50771.42    373.67815   -8365.4444     8.268835 
   39000    1398.6154    24204.066    51109.765    370.06736    -8372.769    8.2803602 
   40000    1403.8068    24184.194    50360.679      371.441   -8379.9179    8.2871643 
   41000    1395.5356    24168.837    50432.439    369.25247    -8384.177    8.2924297 
   42000    1375.2139    24077.501    54947.528    363.87542   -8395.1879    8.3238865 
   43000    1414.9614    24177.345    51792.743    374.39243   -8378.4968    8.2895117 
   44000    1408.8221    24263.252    45837.473    372.76801   -8377.1654    8.2601617 
   45000    1411.1696    24327.307    43196.336    373.38914   -8375.0534    8.2384124 
   46000    1440.4941    24252.624    46928.618    381.14829   -8378.3884    8.2637816 
   47000    1378.3942      24203.4    49339.455    364.71694   -8378.8159    8.2805882 
   48000    1407.2939    24217.536    50396.615    372.36365   -8369.7971    8.2757548 
   49000     1406.227    24134.185    56063.041    372.08137   -8372.4958    8.3043363 
   50000    1445.7154    24141.594     56861.61    382.52981   -8368.5822    8.3017876 
   51000     1320.694    24096.797     55621.48     349.4497   -8378.7315     8.317221 
   52000    1390.0639    24254.768    48908.417    367.80467    -8365.024    8.2630512 
   53000    1401.2607    24334.646    45198.191    370.76731   -8360.2357    8.2359279 
   54000     1405.542    24171.003    51334.332    371.90013   -8381.8776    8.2916867 
   55000    1417.9244    24197.714    52203.743    375.17644   -8370.6478    8.2825338 
   56000    1357.2288    24177.525    53469.573    359.11665   -8365.9425    8.2894502 
   57000    1392.0342    24184.997    52263.233      368.326   -8372.9404    8.2868891 
   58000    1389.6376    24293.589    43832.772    367.69187    -8376.187    8.2498466 
   59000    1397.9825    24290.983    45724.967    369.89991   -8372.2297    8.2507317 
   60000    1401.1281        24250    46643.148    370.73222    -8377.493    8.2646759 
   61000    1412.4644    24286.455    45849.613    373.73175   -8370.9146    8.2522702 
   62000    1421.4584    24188.996    50929.069    376.11152   -8375.7024     8.285519 
   63000    1398.3032    24236.977     48416.52    369.98477   -8373.2383    8.2691167 
   64000     1400.277    24204.435     49588.24    370.50701   -8377.9106    8.2802339 
   65000    1411.6367    24221.298    46588.461    373.51275   -8385.6493    8.2744694 
   66000    1374.4453    24210.638    47021.399    363.67206   -8384.2902    8.2781127 
   67000    1448.9822    24251.571    47197.594    383.39419   -8374.7375    8.2641403 
   68000    1400.6941    24080.167    55927.044    370.61737   -8383.4356    8.3229651 
   69000    1439.7669    24148.931    55144.676    380.95588    -8372.645    8.2992655 
   70000    1435.1361    24207.377    49487.076    379.73057   -8382.7802    8.2792278 
   71000    1423.9236    24200.272    48474.595    376.76379   -8383.1135    8.2816583 
   72000     1418.704     24253.91    47754.082    375.38272    -8370.816    8.2633434 
   73000    1364.3935    24225.725    51045.892    361.01241   -8360.5958    8.2729572 
   74000    1369.7512    24277.112    47450.676    362.43004   -8363.4232    8.2554459 
   75000    1336.9626    24210.755    48714.115     353.7543    -8379.723    8.2780724 
   76000    1408.2679    24201.155    49142.108    372.62138    -8380.851    8.2813561 
   77000    1416.8324    24249.007    50083.629    374.88751    -8361.984     8.265014 
   78000    1431.5493    24189.183    56241.548    378.78152   -8360.0352    8.2854549 
   79000    1405.8595    24095.514    54089.425    371.98413   -8392.7976     8.317664 
   80000    1412.7045    24235.052    49839.979    373.79526   -8367.1641    8.2697734 
   81000    1432.4875     24283.99    46357.812    379.02976   -8369.5198    8.2531076 
   82000    1421.6491    24175.852    49827.976    376.16197   -8389.4079    8.2900237 
   83000    1401.5042    24168.316    53813.384    370.83174   -8370.0809    8.2926085 
   84000    1371.8588     24175.02    51589.796    362.98769   -8376.8524    8.2903091 
   85000     1380.637    24091.539    57905.741    365.31036   -8372.6236    8.3190363 
   86000    1400.3975    24104.774    56677.045    370.53889   -8378.4494    8.3144686 
   87000    1441.3763    24211.996    51522.024     381.3817   -8369.8167    8.2776482 
   88000    1376.8238    24186.842    49762.243     364.3014   -8382.0872    8.2862569 
   89000    1391.3422    24317.068    40750.596     368.1429   -8382.7136    8.2418813 
   90000    1427.3326    24305.196    45536.742    377.66582   -8365.1841     8.245907 
   91000    1418.3657    24200.272    49639.761     375.2932   -8380.2717    8.2816583 
   92000    1394.1147    24150.828    53831.517    368.87649   -8374.7287    8.2986136 
   93000    1422.7863    24172.875    54110.312    376.46287   -8367.8728    8.2910448 
   94000    1374.5722     24198.68    50547.169    363.70564   -8371.2339    8.2822033 
   95000    1413.0352    24232.691    48259.359    373.88277   -8374.8221    8.2705789 
   96000    1374.1576    24283.959    45077.029    363.59595   -8370.9021    8.2531184 
   97000     1371.859    24305.354     44794.23    362.98774   -8370.3434    8.2458535 
   98000    1444.3972    24265.383    44150.825    382.18102   -8387.8358    8.2594364 
   99000     1415.037    24211.663    50576.844    374.41244   -8369.1987     8.277762 
  100000    1417.3374    24126.553    52106.292    375.02112   -8392.1178    8.3069632 
  101000    1409.8755    24309.855    43803.008    373.04674   -8369.9691    8.2443266 
  102000    1414.0919    24260.381    43922.064    374.16238   -8388.1354    8.2611393 
  103000    1380.1593    24224.599    48714.839    365.18396   -8374.4508    8.2733419 
  104000    1410.1591    24215.861    51473.081    373.12179   -8365.8344     8.276327 
  105000    1348.0746    24184.876    52658.846    356.69449   -8368.5992    8.2869306 
  106000    1399.9673    24251.278    45520.366    370.42507   -8378.4531    8.2642402 
  107000    1361.2181    24268.101    45602.065    360.17221   -8375.9131    8.2585112 
  108000    1374.2517    24183.207    48711.625    363.62084   -8386.5479    8.2875026 
  109000    1418.9498    24285.572    47506.025    375.44775   -8364.4059    8.2525703 
  110000     1399.264    24282.031     44566.44    370.23897   -8375.0656    8.2537736 
  111000    1411.6053    24252.955    45597.229    373.50443   -8380.8102    8.2636688 
  112000    1405.4226    24248.063    47930.007    371.86852   -8373.4585    8.2653359 
  113000    1401.2122    24230.017    52974.731    370.75447   -8356.8564    8.2714919 
  114000    1435.6314    24115.258    53567.351    379.86163   -8389.3793    8.3108539 
  115000    1453.0913    24219.879     52185.82    384.48146   -8364.1211     8.274954 
  116000    1426.8889    24162.929    52218.007     377.5484    -8379.508    8.2944576 
  117000    1342.9487     24109.84    55951.159    355.33821   -8374.9566    8.3127215 
  118000     1423.256    24197.151    51946.606    376.58715   -8370.3364    8.2827268 
  119000    1392.6853    24213.674    49984.239     368.4983   -8372.9051    8.2770745 
  120000    1363.6958    24264.759    48018.922    360.82779   -8368.6163    8.2596487 
  121000    1400.4464    24255.154    47814.506    370.55184   -8372.8673    8.2629196 
  122000    1363.9585    24227.207    46605.229    360.89729   -8387.4989    8.2724511 
  123000    1364.1403    24241.604    46417.334    360.94541    -8379.868     8.267538 
  124000    1431.6578    24149.948    53931.564    378.81022   -8376.7182     8.298916 
  125000    1424.6753    24201.069    50784.026     376.9627    -8374.211    8.2813856 
  126000     1397.853    24221.382    48820.088    369.86564   -8374.4013    8.2744405 
  127000    1413.5043     24266.84     45348.54    374.00689   -8378.9147    8.2589403 
  128000    1403.1663    24236.309    49159.007     371.2715    -8372.306    8.2693446 
  129000    1421.2131     24311.96    46174.098     376.0466   -8362.7541    8.2436129 
  130000     1425.883    24240.344     49700.47    377.28225    -8368.348    8.2679679 
  131000     1398.896    24126.345    53547.119     370.1416   -8383.7114    8.3070349 
  132000    1386.8913    24200.498    52347.049    366.96522   -8366.8043    8.2815811 
  133000     1437.395    24200.848    52289.425    380.32828    -8367.873    8.2814614 
[...]
  120000    1090.9929    23198.865    48351.413    288.67182   -8678.6636    8.6391464 
  121000    1106.6493    23275.943    43722.101    292.81443   -8669.4415    8.6105376 
  122000    1106.1765     23150.62    52884.298    292.68935   -8671.7741    8.6571499 
  123000     1105.485    23194.265    51334.392    292.50639   -8663.5769    8.6408595 
  124000    1118.9863    23246.796    46769.476    296.07875     -8666.18    8.6213338 
  125000    1111.8961    23105.442    58046.524    294.20273   -8667.7414    8.6740771 
  126000    1128.2102    23168.884    51257.276    298.51935    -8675.423    8.6503253 
  127000    1080.2072    23210.419    48576.817    285.81799   -8672.5509    8.6348458 
  128000    1129.5001    23214.002    50079.235    298.86067   -8667.6573    8.6335131 
  129000    1043.9424     23180.31    50436.696    276.22248   -8672.5181    8.6460617 
  130000    1115.1138    23241.418    48947.472    295.05411   -8661.9971    8.6233287 
  131000      1090.41    23132.221    54517.347    288.51761   -8672.3481    8.6640356 
  132000    1090.5258    23241.738     46593.11    288.54824   -8667.3127    8.6232099 
  133000    1108.2483    23243.785     46606.71    293.23754   -8669.5677    8.6224507 
  134000    1120.4437    23154.047    52701.895    296.46438    -8674.733    8.6558686 
  135000    1099.1507    23200.811    49564.074    290.83035   -8668.6881    8.6384216 
  136000    1088.9958    23210.158    48996.385     288.1434   -8671.6579    8.6349427 
  137000    1090.1726    23283.564    45229.769    288.45479   -8658.2279    8.6077194 
  138000    1149.8239    23161.265    53516.485    304.23824   -8670.0173     8.653171 
  139000    1106.8585    23133.701    55601.021    292.86981    -8665.871    8.6634812 
  140000    1057.7162     23206.66     49463.99    279.86697   -8666.0739    8.6362444 
  141000    1085.8698    23207.174    48843.586    287.31628   -8671.9231     8.636053 
  142000    1101.0286    23199.128    50996.397    291.32724   -8666.6151    8.6390483 
  143000    1141.5661    23133.843    52759.111    302.05326   -8681.4786    8.6634282 
  144000    1108.7833    23267.975    44674.241    293.37909   -8670.7078    8.6134863 
  145000    1094.5017     23211.58     48470.74    289.60024   -8671.4767    8.6344137 
  146000    1127.6266    23195.463    52928.684    298.36494   -8660.7788    8.6404133 
  147000    1083.2116    23189.414    49849.179    286.61294   -8674.1318    8.6426671 
  148000    1077.3973    23258.868    45146.104    285.07449   -8669.5516    8.6168591 
  149000    1131.2328    23181.728    53411.536    299.31912   -8661.3429    8.6455326 
  150000    1103.2591    23180.361    51498.331    291.91742   -8670.8434    8.6460423 
  151000    1092.0264    23230.263    48740.546    288.94529   -8664.4777    8.6274697 
  152000    1131.3137     23191.54    51301.152    299.34054   -8665.3557    8.6418747 
  153000    1136.3778    23173.505    51620.282    300.68048   -8672.5411    8.6486004 
  154000      1071.64    23210.642    46714.739    283.55115   -8678.7539    8.6347626 
  155000    1146.0139    23210.691    49019.784    303.23013   -8673.9832    8.6347446 
  156000    1101.7248    23142.415    53955.941    291.51144   -8672.3069    8.6602193 
  157000    1087.1829    23343.239    40001.477    287.66373    -8664.586    8.5857146 
  158000    1080.7209    23198.553    50079.039    285.95389    -8671.733    8.6392625 
  159000    1104.7059    23197.251    51309.933    292.30024   -8663.0053    8.6397473 
  160000    1103.1271    23211.602    47965.445    291.88249    -8674.496    8.6344057 
  161000    1149.0785     23256.45    46569.117    304.04103   -8665.4785    8.6177548 
  162000    1096.3102    23165.264    51968.676    290.07877    -8670.998    8.6516772 
  163000    1105.5848    23206.194    50212.105    292.53279   -8667.4536     8.636418 
  164000    1058.1994    23206.422    48193.547    279.99483   -8672.9686    8.6363329 
  165000    1130.7927    23141.553    55580.731    299.20267   -8665.5537    8.6605417 
  166000    1135.9814    23146.398    52848.916    300.57559   -8676.9039    8.6587291 
  167000    1104.6052    23227.891    47521.335    292.27358    -8670.237    8.6283506 
  168000    1064.3871    23166.344    52470.743    281.63206   -8669.0412    8.6512739 
  169000    1084.3328    23229.304    47978.417    286.90961   -8668.2131    8.6278259 
  170000    1100.1678    23228.786    48036.196    291.09946   -8668.1769    8.6280182 
  171000    1120.4179    23139.743    53188.904    296.45755   -8676.6455    8.6612193 
  172000    1104.2584    23277.442    44704.178    292.18181   -8665.6745    8.6099834 
  173000    1086.2857    23199.644    49632.816    287.42632   -8669.1167    8.6388561 
  174000     1113.853    23164.308    54022.794    294.72052   -8664.5168    8.6520343 
  175000    1093.0376    23220.436    46707.796    289.21284   -8675.0403    8.6311207 
  176000    1086.1944    23224.027    47649.242    287.40217   -8669.5389    8.6297863 
  177000     1111.876    23142.057    54535.881     294.1974   -8668.9068    8.6603532 
  178000    1090.1598    23226.019    48328.434     288.4514   -8667.9798    8.6290461 
  179000    1079.7507    23261.854    44496.034     285.6972   -8670.5833     8.615753 
  180000    1092.7485    23144.382    56576.261    289.13635   -8660.7859     8.659483 
  181000    1120.3093    23217.499     49063.11    296.42882   -8669.4386    8.6322127 
  182000    1049.1459    23188.879    48936.535    277.59931   -8674.4653    8.6428665 
  183000    1093.2413    23166.988    54058.851    289.26675   -8664.6839    8.6510334 
  184000    1081.6575    23133.512    53206.989    286.20172   -8677.6972    8.6635522 
  185000     1102.045    23276.473    44355.328    291.59616   -8668.9097    8.6103416 
  186000     1134.983    23122.078    56187.318    300.31142   -8672.3524    8.6678363 
  187000    1102.1006     23190.37    51549.894    291.61087   -8663.3844     8.642311 
  188000    1108.2542     23251.05     47556.27    293.23908   -8662.5868    8.6197564 
  189000     1098.736    23199.265    49211.392    290.72061   -8672.8972    8.6389972 
  190000    1093.6835    23088.635    59430.044    289.38374   -8664.6153    8.6803914 
  191000    1106.6811    23190.222    48594.886    292.82287   -8678.8335    8.6423659 
  192000    1108.7399    23246.794    45877.561    293.36762   -8671.9643    8.6213344 
  193000    1106.3493    23175.047    53454.503    292.73507   -8664.1158    8.6480249 
  194000    1085.5852    23173.172    51875.672    287.24097   -8669.6973    8.6487246 
  195000    1048.8709    23240.126     47526.64    277.52654   -8664.5608    8.6238082 
  196000    1106.9118    23254.242     46000.71    292.88391   -8669.2407    8.6185731 
  197000    1096.8153    23119.097    56590.533    290.21242   -8668.5194    8.6689538 
  198000     1109.192    23180.478     51417.32    293.48723   -8669.0491    8.6459988 
  199000    1079.3731    23218.991    48288.421    285.59728   -8671.4419     8.631658 
  200000    1104.2523    23190.908     50014.08     292.1802   -8673.0579    8.6421104 
  201000    1125.3897    23208.629    49171.077    297.77306   -8670.1113    8.6355117 
  202000    1108.2825    23262.586    43610.378    293.24657   -8675.8323    8.6154818 
  203000    1091.4662    23168.472    53498.739    288.79707   -8663.8181    8.6504794 
  204000    1087.1898    23158.627    52608.322    287.66555   -8674.2605    8.6541568 
  205000    1070.5171    23245.525    46765.979    283.25404   -8663.3612    8.6218052 
  206000    1114.7752    23193.255    49970.512    294.96452   -8673.3727    8.6412357 
  207000    1077.7702    23186.142    51086.475    285.17317    -8668.345    8.6438869 
  208000    1098.4735    23228.511    47943.222    290.65116   -8669.3997    8.6281203 
  209000     1107.626    23206.776    48758.677    293.07287   -8675.5067    8.6362011 
  210000     1150.248    23215.213     48100.37    304.35046    -8676.518    8.6330627 
  211000    1095.4765    23192.648    52102.568    289.85817   -8662.6567     8.641462 
  212000    1117.9253    23167.808    50838.521    295.79801   -8678.5273    8.6507273 
  213000    1112.7034    23294.879    40747.242    294.41632   -8679.8306    8.6035385 
  214000     1112.616    23174.177     50711.82     294.3932   -8675.6534    8.6483497 
  215000    1121.7847    23187.851    50703.601     296.8192   -8670.3532    8.6432497 
  216000    1107.2736    23231.611    48610.465    292.97962   -8665.9137    8.6269691 
  217000    1102.9209    23191.626     49525.31    291.82792   -8673.5987    8.6418427 
  218000    1082.3261    23239.265    47488.134    286.37864   -8666.0112    8.6241274 
  219000    1078.1833    23193.965    47602.256    285.28248   -8682.1178    8.6409714 
  220000    1057.6564    23107.201    58223.014    279.85114   -8663.5246    8.6734169 
  221000    1086.9455    23225.511    48666.509    287.60092    -8666.392    8.6292346 
  222000    1106.6029     23198.12    48361.834    292.80216   -8676.9616    8.6394236 
  223000     1097.911    23195.952     51797.71    290.50234   -8663.9362    8.6402312 
  224000    1082.6481    23183.604     50818.57    286.46383   -8672.1366    8.6448331 
  225000    1131.2474    23236.341    48563.649    299.32298   -8665.7705    8.6252128 
  226000    1078.9257    23206.704     49438.87    285.47892   -8668.0351    8.6362279 
  227000    1054.2834    23088.306    56719.796    278.95867   -8676.5236    8.6805152 
  228000    1120.4029     23235.11    46746.053    296.45357   -8673.0272      8.62567 
  229000    1070.1168    23229.693    46662.255    283.14811   -8672.8657    8.6276812 
  230000    1127.4871    23171.295    49711.997    298.32803   -8679.1635    8.6494253 
  231000    1122.8527    23191.227    50937.491    297.10178   -8668.2354    8.6419916 
  232000    1073.5664    23202.678    47820.878    284.06086   -8675.7449    8.6377264 
  233000    1093.8004    23202.019    47515.057    289.41467   -8679.1178    8.6379719 
  234000    1088.0472    23102.396    60670.067    287.89242   -8655.5391    8.6752207 
  235000     1090.512    23214.645    49726.906     288.5446    -8666.517    8.6332739 
  236000    1064.0486    23216.599    47075.065    281.54249   -8676.0132    8.6325474 
  237000    1079.0481    23186.269    53027.936    285.51129   -8660.4117    8.6438395 
  238000     1094.243    23150.841    52650.312     289.5318   -8673.3801    8.6570674 
  239000    1074.2991    23293.171    42308.304    284.25472   -8670.3502    8.6041693 
  240000    1104.0132    23206.073    47845.596    292.11694   -8675.7326    8.6364627 
  241000    1127.8445    23175.878    50106.533    298.42259   -8678.0058     8.647715 
  242000     1161.893     23228.14    49140.197    307.43167   -8666.0203    8.6282579 
  243000    1061.3647    23164.923    52700.689    280.83233   -8670.6706    8.6518045 
  244000    1079.6995    23246.189    47135.498    285.68365   -8664.0202     8.621559 
  245000    1087.5614    23092.471    60198.546    287.76388   -8661.8767    8.6789494 
  246000    1081.9468    23205.861    49847.715    286.27827   -8665.4442    8.6365417 
  247000    1105.6022    23217.152    47309.219    292.53739   -8674.6898    8.6323415 
  248000    1118.3867    23199.838    51329.543    295.92011   -8662.7005    8.6387837 
  249000    1106.5332    23221.162    47015.828    292.78373   -8678.3701    8.6308508 
  250000    1080.9623    23245.639     46735.79    286.01778   -8668.1767    8.6217627 
Loop time of 465.515 on 8 procs for 250000 steps with 2048 atoms

Performance: 46.400 ns/day, 0.517 hours/ns, 537.039 timesteps/s
118.9% CPU use with 4 MPI tasks x 2 OpenMP threads

MPI task timing breakdown:
Section |  min time  |  avg time  |  max time  |%varavg| %total
---------------------------------------------------------------
Pair    | 267.84     | 271.72     | 275.35     |  19.0 | 58.37
Neigh   | 2.0638     | 2.097      | 2.1229     |   1.6 |  0.45
Comm    | 18.11      | 21.703     | 25.704     |  68.0 |  4.66
Output  | 0.0054571  | 0.010781   | 0.012573   |   3.0 |  0.00
Modify  | 169.18     | 169.26     | 169.38     |   0.6 | 36.36
Other   |            | 0.7232     |            |       |  0.16

Nlocal:        512.000 ave         516 max         507 min
Histogram: 1 0 0 0 1 0 0 1 0 1
Nghost:        2842.25 ave        2852 max        2835 min
Histogram: 1 0 1 0 1 0 0 0 0 1
Neighs:        41292.8 ave       42284 max       40487 min
Histogram: 2 0 0 0 0 0 0 1 0 1

Total # of neighbors = 165171
Ave neighs/atom = 80.649902
Neighbor list builds = 2388
Dangerous builds = 0


# fix 132 all momentum 100 linear 1 1 1 angular
fix out_file_1 all print 1000 "$(step) $(temp) $(press) ${sys_press} $(vol) $(ke) $(pe) $(density)" file one_phase_${sim}_press_$P_$T_.txt screen no title  "step temp press pressGiga vol ke pe density"
fix out_file_1 all print 1000 "$(step) $(temp) $(press) ${sys_press} $(vol) $(ke) $(pe) $(density)" file one_phase_cooling_press_$P_$T_.txt screen no title  "step temp press pressGiga vol ke pe density"
fix out_file_1 all print 1000 "$(step) $(temp) $(press) ${sys_press} $(vol) $(ke) $(pe) $(density)" file one_phase_cooling_press_50000_$T_.txt screen no title  "step temp press pressGiga vol ke pe density"
fix out_file_1 all print 1000 "$(step) $(temp) $(press) ${sys_press} $(vol) $(ke) $(pe) $(density)" file one_phase_cooling_press_50000_1100_.txt screen no title  "step temp press pressGiga vol ke pe density"

# dump 3 all custom 1000 traj_npt_new.lammpstrj id type x y z
run 50000
Last active /omp style is pair_style eam/alloy/omp
Per MPI rank memory allocation (min/avg/max) = 4.315 | 4.316 | 4.316 Mbytes
Step Temp Volume Press KinEng PotEng Density 
  250000    1080.9623    23245.639     46735.79    286.01778   -8668.1767    8.6217627 
  251000    1091.4026    23141.269    54873.725    288.78022   -8668.1741     8.660648 
  252000    1112.0266    23294.363    43972.598    294.23725   -8666.0807     8.603729 
  253000    1100.2666    23216.934    47425.948    291.12562   -8677.3039    8.6324225 
  254000    1127.7934    23217.212    50639.758    298.40907    -8664.357    8.6323191 
  255000    1125.8147    23240.856    47715.031    297.88553   -8665.9762    8.6235371 
  256000    1095.6655     23255.46    45573.798    289.90817   -8669.1504    8.6181217 
  257000    1086.4304    23182.383    50898.687    287.46461   -8670.9277    8.6452883 
  258000    1077.9377    23163.164    52281.663    285.21749   -8670.3189    8.6524616 
  259000    1114.2029    23314.355    41096.143    294.81308   -8668.3757    8.5963512 
  260000     1116.444    23176.867    51123.609    295.40609   -8672.9785    8.6473459 
  261000    1056.8825    23163.778     50793.33    279.64637   -8676.3956    8.6522323 
  262000    1086.1826    23218.539    48982.288    287.39905    -8665.205    8.6318261 
  263000     1094.147    23123.473    55287.738    289.50639   -8671.7293    8.6673134 
  264000    1089.8758    23213.648    48846.431    288.37626   -8667.6461    8.6336447 
  265000     1085.482    23291.201     43543.87    287.21367   -8666.5694    8.6048969 
  266000     1117.683     23204.03    50382.746    295.73392   -8665.5777    8.6372231 
  267000    1106.2966    23184.101    50354.158    292.72113   -8673.9239    8.6446479 
  268000    1107.6135    23223.412    47425.978    293.06958   -8674.5773    8.6300146 
  269000    1120.9013    23244.448    47884.269    296.58547   -8664.8682    8.6222046 
  270000    1113.1682    23064.967    59255.164     294.5393   -8674.3765    8.6892985 
  271000    1106.5078    23232.572    46446.566      292.777   -8673.3416    8.6266122 
  272000    1095.9455     23230.37    47835.606    289.98227   -8667.4293    8.6274299 
  273000    1111.3047    23135.366    54656.961    294.04624   -8671.2329     8.662858 
  274000    1118.8735    23175.047    52500.854    296.04891   -8667.2022    8.6480249 
  275000    1103.2974    23217.687    48163.782    291.92753    -8668.709    8.6321426 
  276000    1114.6713    23195.363    51380.781    294.93703   -8666.0665    8.6404505 
  277000    1104.1025    23145.828     53377.86    292.14058   -8670.9618    8.6589423 
  278000    1095.9028    23201.868     48862.27    289.97096    -8673.088    8.6380281 
  279000    1115.7717    23257.014    45237.174    295.22818   -8670.5303    8.6175461 
  280000    1106.8122    23143.366    55422.067    292.85756   -8667.3392    8.6598632 
  281000    1082.3774    23210.607    46703.932     286.3922   -8677.3368    8.6347759 
  282000    1137.7093    23235.853    46735.581    301.03277    -8672.064    8.6253939 
  283000    1071.0812    23072.947    59794.018     283.4033   -8669.8348    8.6862935 
  284000    1109.9511     23224.36    46204.949    293.68809   -8676.0765    8.6296625 
  285000      1094.43    23235.641    49226.603    289.58126   -8660.1869    8.6254728 
  286000    1097.5631    23155.963    52222.386    290.41028   -8674.4883    8.6551523 
  287000    1102.2902    23261.637    46099.949    291.66105   -8665.5719    8.6158332 
  288000     1113.608    23178.239    50396.408    294.65568   -8675.8082     8.646834 
  289000    1099.4787    23119.286    57414.869    290.91714   -8665.1021    8.6688832 
  290000    1094.9164    23259.928    46760.472    289.70997   -8663.0999    8.6164665 
  291000    1084.5774    23170.137     50469.89    286.97431   -8674.4414    8.6498577 
  292000    1104.1418    23153.488    52798.368    292.15098   -8671.4195    8.6560775 
  293000     1094.548    23188.742    51171.929     289.6125   -8667.9455    8.6429176 
  294000    1115.9834     23267.26    44699.897    295.28421   -8671.1993    8.6137511 
  295000    1090.2867     23160.89    51659.805    288.48496   -8674.1901    8.6533112 
  296000    1100.9393    23165.016    52608.959     291.3036   -8670.1709    8.6517699 
  297000    1107.3807    23267.693    45140.194    293.00798   -8666.6672    8.6135906 
  298000    1067.9109    23110.802    54587.344    282.56445      -8678.2    8.6720653 
  299000    1115.8819    23165.851     54008.27    295.25734   -8661.6045    8.6514578 
  300000    1052.2966    23231.609    45348.296    278.43296    -8675.056    8.6269697 
Loop time of 93.8238 on 8 procs for 50000 steps with 2048 atoms

Performance: 46.044 ns/day, 0.521 hours/ns, 532.914 timesteps/s
117.3% CPU use with 4 MPI tasks x 2 OpenMP threads

MPI task timing breakdown:
Section |  min time  |  avg time  |  max time  |%varavg| %total
---------------------------------------------------------------
Pair    | 54.128     | 54.855     | 55.725     |   9.0 | 58.47
Neigh   | 0.41729    | 0.42228    | 0.42845    |   0.6 |  0.45
Comm    | 3.9663     | 4.8331     | 5.58       |  30.4 |  5.15
Output  | 0.0012649  | 0.0018994  | 0.0021133  |   0.8 |  0.00
Modify  | 33.543     | 33.56      | 33.58      |   0.3 | 35.77
Other   |            | 0.1516     |            |       |  0.16

Nlocal:        512.000 ave         516 max         507 min
Histogram: 1 0 0 0 1 0 0 1 0 1
Nghost:        2826.75 ave        2836 max        2818 min
Histogram: 1 1 0 0 0 0 0 0 1 1
Neighs:        41411.8 ave       42762 max       40105 min
Histogram: 2 0 0 0 0 0 0 0 0 2

Total # of neighbors = 165647
Ave neighs/atom = 80.882324
Neighbor list builds = 481
Dangerous builds = 0

unfix temp
unfix out_file_1


write_data after_${sim}_press_$P_$T.in
write_data after_cooling_press_$P_$T.in
write_data after_cooling_press_50000_$T.in
write_data after_cooling_press_50000_1100.in
System init for write_data ...
Last active /omp style is pair_style eam/alloy/omp
write_restart after_${sim}_press_$P_$T.lmp
write_restart after_cooling_press_$P_$T.lmp
write_restart after_cooling_press_50000_$T.lmp
write_restart after_cooling_press_50000_1100.lmp
System init for write_restart ...
Last active /omp style is pair_style eam/alloy/omp
next loopVar
jump in.lmp ensemble
























Total wall time: 0:59:52
