LAMMPS (7 Dec 2015)
  using 1 OpenMP thread(s) per MPI task
atom_style  full
units   real
dimension 3
boundary p p p

variable Ctype equal  	 	1
variable CLtype equal  		2
variable Htype equal   		3
variable Otype equal  		4
variable pistontype equal   5
variable NAtype equal   	6
variable zCtype equal 		7
variable zHtype equal 		8
variable seed equal 		1
variable pressure equal 	0.03
variable 1atm equal 		-0.000041
variable waterbond equal    1
variable waterangle equal   1

read_data single_system.dat
Reading data file ...
  orthogonal box = (-1.82802 -0.599998 -60.6) to (30.0726 33.214 30.6)
  8 by 9 by 24 MPI processor grid
  reading atoms ...
  6393 atoms
  scanning bonds ...
  2 = max bonds/atom
  scanning angles ...
  1 = max angles/atom
  reading bonds ...
  3422 bonds
  reading angles ...
  1711 angles
Finding 1-2 1-3 1-4 neighbors ...
 Special bond factors lj:   0          0          0         
 Special bond factors coul: 0          0          0         
  2 = max # of 1-2 neighbors
  1 = max # of 1-3 neighbors
  1 = max # of 1-4 neighbors
  2 = max # of special neighbors
variable natoms equal "count(all)"

# Define interaction parameters
pair_style hybrid lj/cut/tip4p/long ${Otype} ${Htype} ${waterbond} ${waterangle}  0.1546 13.0 airebo 3.0 0 1
pair_style hybrid lj/cut/tip4p/long 4 ${Htype} ${waterbond} ${waterangle}  0.1546 13.0 airebo 3.0 0 1
pair_style hybrid lj/cut/tip4p/long 4 3 ${waterbond} ${waterangle}  0.1546 13.0 airebo 3.0 0 1
pair_style hybrid lj/cut/tip4p/long 4 3 1 ${waterangle}  0.1546 13.0 airebo 3.0 0 1
pair_style hybrid lj/cut/tip4p/long 4 3 1 1  0.1546 13.0 airebo 3.0 0 1
pair_modify tail yes
bond_style harmonic
angle_style harmonic
dihedral_style none

# ------------- Regions and Groups ----------------
group carbon    type ${Ctype} ${pistontype}  # all carbon atoms
group carbon    type 1 ${pistontype}  
group carbon    type 1 5  
1212 atoms in group carbon
group ox        type ${Otype}
group ox        type 4
1711 atoms in group ox
group hy        type ${Htype}
group hy        type 3
3422 atoms in group hy
group na        type ${NAtype}
group na        type 6
12 atoms in group na
group cl        type ${CLtype}
group cl        type 2
12 atoms in group cl

group h_hydrogen    type ${zHtype}
group h_hydrogen    type 8
12 atoms in group h_hydrogen
group c_hydrogen    type ${zCtype}
group c_hydrogen    type 7
12 atoms in group c_hydrogen
group hydrogengroup union h_hydrogen c_hydrogen
24 atoms in group hydrogengroup

# Defining the positions of all four carbon planes
variable zpiston1 equal -50
variable zmembrane1 equal 0
variable zpiston2 equal "20"

# Defining the piston and the membrane carbons
variable zmin equal ${zpiston1}-1.0
variable zmin equal -50-1.0
variable zmax equal ${zpiston1}+1.0
variable zmax equal -50+1.0
region piston1zone   block INF INF INF INF ${zmin} ${zmax} units box
region piston1zone   block INF INF INF INF -51 ${zmax} units box
region piston1zone   block INF INF INF INF -51 -49 units box
variable zmin equal ${zmembrane1}-1.0
variable zmin equal 0-1.0
variable zmax equal ${zmembrane1}+1.0
variable zmax equal 0+1.0
region  membrane1zone  block INF INF INF INF ${zmin} ${zmax} units box
region  membrane1zone  block INF INF INF INF -1 ${zmax} units box
region  membrane1zone  block INF INF INF INF -1 1 units box
variable zmin equal ${zpiston2}-1.0
variable zmin equal 20-1.0
variable zmax equal ${zpiston2}+1.0
variable zmax equal 20+1.0
region piston2zone   block INF INF INF INF ${zmin} ${zmax} units box
region piston2zone   block INF INF INF INF 19 ${zmax} units box
region piston2zone   block INF INF INF INF 19 21 units box
group piston1            region piston1zone             # whole piston1 (carbon)
416 atoms in group piston1
group piston2          region piston2zone               # whole piston1 (carbon)
416 atoms in group piston2
group bothpistons          union piston1 piston2
832 atoms in group bothpistons
group membrane1_atoms region membrane1zone
404 atoms in group membrane1_atoms
group totalmembrane     union membrane1_atoms
404 atoms in group totalmembrane
group not_hy subtract all hy
2971 atoms in group not_hy

# defining the subset of each membrane that is allowed to move
variable free_radius equal 16.5
region freemembrane1_zone cylinder z 15.0 15.0 ${free_radius} INF INF
region freemembrane1_zone cylinder z 15.0 15.0 16.5 INF INF
group in_freemembrane_1zone region freemembrane1_zone
5387 atoms in group in_freemembrane_1zone
group membrane1_free intersect in_freemembrane_1zone membrane1_atoms
310 atoms in group membrane1_free
group membrane1_rigid subtract membrane1_atoms membrane1_free
94 atoms in group membrane1_rigid

# defining water groups
group water     union ox hy
5133 atoms in group water
group saltwater union water na cl
5157 atoms in group saltwater
group notsaltwater subtract all saltwater
1236 atoms in group notsaltwater

# Defining the group of atoms that go into the Nose-Hoover thermostat
group thermostat_target union saltwater membrane1_free piston1 piston2
6299 atoms in group thermostat_target

# setting hydrogen charges (from Birkett et al.)
set group c_hydrogen charge -0.115
Setting atom values ...
  12 settings made for charge
set group h_hydrogen charge 0.115
Setting atom values ...
  12 settings made for charge

# Setting water charges
set group ox charge -1.0484
Setting atom values ...
  1711 settings made for charge
set group hy charge  0.5242
Setting atom values ...
  3422 settings made for charge
set group na charge  1.
Setting atom values ...
  12 settings made for charge
set group cl charge -1.
Setting atom values ...
  12 settings made for charge

# ------------- Coefficients ----------------
# AIREBO:
pair_coeff * * airebo CH.airebo_real C NULL NULL NULL NULL NULL C H
# Lennard-Jones: sigmaAB = (1/2)(sigmaAA + sigmaBB), epsilonAB = (epsilonAAepsilonBB)1/2
# Syntax: pair_coeff atom_i atom_j epsilon sigma
pair_coeff ${Ctype} ${CLtype} lj/cut/tip4p/long 0.031702 4.2821 # C-CL
pair_coeff 1 ${CLtype} lj/cut/tip4p/long 0.031702 4.2821 
pair_coeff 1 2 lj/cut/tip4p/long 0.031702 4.2821 
pair_coeff ${Ctype} ${Htype} lj/cut/tip4p/long 0 0 # C-H
pair_coeff 1 ${Htype} lj/cut/tip4p/long 0 0 
pair_coeff 1 3 lj/cut/tip4p/long 0 0 
pair_coeff ${Ctype} ${Otype} lj/cut/tip4p/long 0.12613 3.2793 # C-O
pair_coeff 1 ${Otype} lj/cut/tip4p/long 0.12613 3.2793 
pair_coeff 1 4 lj/cut/tip4p/long 0.12613 3.2793 
pair_coeff ${Ctype} ${pistontype} lj/cut/tip4p/long 0.019208 3.3749 # C-piston
pair_coeff 1 ${pistontype} lj/cut/tip4p/long 0.019208 3.3749 
pair_coeff 1 5 lj/cut/tip4p/long 0.019208 3.3749 
pair_coeff ${Ctype} ${NAtype} lj/cut/tip4p/long 0.12027 2.8293 # C-NA
pair_coeff 1 ${NAtype} lj/cut/tip4p/long 0.12027 2.8293 
pair_coeff 1 6 lj/cut/tip4p/long 0.12027 2.8293 
pair_coeff ${CLtype} ${CLtype} lj/cut/tip4p/long 0.0117 5.1645 # CL-CL
pair_coeff 2 ${CLtype} lj/cut/tip4p/long 0.0117 5.1645 
pair_coeff 2 2 lj/cut/tip4p/long 0.0117 5.1645 
pair_coeff ${CLtype} ${Htype} lj/cut/tip4p/long 0 0 # CL-H
pair_coeff 2 ${Htype} lj/cut/tip4p/long 0 0 
pair_coeff 2 3 lj/cut/tip4p/long 0 0 
pair_coeff ${CLtype} ${Otype} lj/cut/tip4p/long 0.046549 4.1617 # CL-O
pair_coeff 2 ${Otype} lj/cut/tip4p/long 0.046549 4.1617 
pair_coeff 2 4 lj/cut/tip4p/long 0.046549 4.1617 
pair_coeff ${CLtype} ${pistontype} lj/cut/tip4p/long 0.0070888 4.2572 # CL-piston
pair_coeff 2 ${pistontype} lj/cut/tip4p/long 0.0070888 4.2572 
pair_coeff 2 5 lj/cut/tip4p/long 0.0070888 4.2572 
pair_coeff ${CLtype} ${NAtype} lj/cut/tip4p/long 0.044388 3.7117 # CL-NA
pair_coeff 2 ${NAtype} lj/cut/tip4p/long 0.044388 3.7117 
pair_coeff 2 6 lj/cut/tip4p/long 0.044388 3.7117 
pair_coeff ${CLtype} ${zCtype} lj/cut/tip4p/long 0.028679 4.3573 # CL-zC
pair_coeff 2 ${zCtype} lj/cut/tip4p/long 0.028679 4.3573 
pair_coeff 2 7 lj/cut/tip4p/long 0.028679 4.3573 
pair_coeff ${CLtype} ${zHtype} lj/cut/tip4p/long 0.018766 3.7923 # CL-zH
pair_coeff 2 ${zHtype} lj/cut/tip4p/long 0.018766 3.7923 
pair_coeff 2 8 lj/cut/tip4p/long 0.018766 3.7923 
pair_coeff ${Htype} ${Htype} lj/cut/tip4p/long 0 0 # H-H
pair_coeff 3 ${Htype} lj/cut/tip4p/long 0 0 
pair_coeff 3 3 lj/cut/tip4p/long 0 0 
pair_coeff ${Htype} ${Otype} lj/cut/tip4p/long 0 0 # H-O
pair_coeff 3 ${Otype} lj/cut/tip4p/long 0 0 
pair_coeff 3 4 lj/cut/tip4p/long 0 0 
pair_coeff ${Htype} ${pistontype} lj/cut/tip4p/long 0 0 # H-piston
pair_coeff 3 ${pistontype} lj/cut/tip4p/long 0 0 
pair_coeff 3 5 lj/cut/tip4p/long 0 0 
pair_coeff ${Htype} ${NAtype} lj/cut/tip4p/long 0 0 # H-NA
pair_coeff 3 ${NAtype} lj/cut/tip4p/long 0 0 
pair_coeff 3 6 lj/cut/tip4p/long 0 0 
pair_coeff ${Htype} ${zCtype} lj/cut/tip4p/long 0 0 # H-zC
pair_coeff 3 ${zCtype} lj/cut/tip4p/long 0 0 
pair_coeff 3 7 lj/cut/tip4p/long 0 0 
pair_coeff ${Htype} ${zHtype} lj/cut/tip4p/long 0 0 # H-zH
pair_coeff 3 ${zHtype} lj/cut/tip4p/long 0 0 
pair_coeff 3 8 lj/cut/tip4p/long 0 0 
pair_coeff ${Otype} ${Otype} lj/cut/tip4p/long 0.1852 3.1589 # O-O
pair_coeff 4 ${Otype} lj/cut/tip4p/long 0.1852 3.1589 
pair_coeff 4 4 lj/cut/tip4p/long 0.1852 3.1589 
pair_coeff ${Otype} ${pistontype} lj/cut/tip4p/long 0.028203 3.2545 # O-piston
pair_coeff 4 ${pistontype} lj/cut/tip4p/long 0.028203 3.2545 
pair_coeff 4 5 lj/cut/tip4p/long 0.028203 3.2545 
pair_coeff ${Otype} ${NAtype} lj/cut/tip4p/long 0.1766 2.7089 # O-NA
pair_coeff 4 ${NAtype} lj/cut/tip4p/long 0.1766 2.7089 
pair_coeff 4 6 lj/cut/tip4p/long 0.1766 2.7089 
pair_coeff ${Otype} ${zCtype} lj/cut/tip4p/long 0.1141 3.3544 # O-zC
pair_coeff 4 ${zCtype} lj/cut/tip4p/long 0.1141 3.3544 
pair_coeff 4 7 lj/cut/tip4p/long 0.1141 3.3544 
pair_coeff ${Otype} ${zHtype} lj/cut/tip4p/long 0.074663 2.7894 # O-zH
pair_coeff 4 ${zHtype} lj/cut/tip4p/long 0.074663 2.7894 
pair_coeff 4 8 lj/cut/tip4p/long 0.074663 2.7894 
pair_coeff ${pistontype} ${pistontype} lj/cut/tip4p/long 0.004295 3.35 # piston-piston
pair_coeff 5 ${pistontype} lj/cut/tip4p/long 0.004295 3.35 
pair_coeff 5 5 lj/cut/tip4p/long 0.004295 3.35 
pair_coeff ${pistontype} ${NAtype} lj/cut/tip4p/long 0.026894 2.8045 # piston-NA
pair_coeff 5 ${NAtype} lj/cut/tip4p/long 0.026894 2.8045 
pair_coeff 5 6 lj/cut/tip4p/long 0.026894 2.8045 
pair_coeff ${pistontype} ${zCtype} lj/cut/tip4p/long 0.017376 3.45 # piston-zC
pair_coeff 5 ${zCtype} lj/cut/tip4p/long 0.017376 3.45 
pair_coeff 5 7 lj/cut/tip4p/long 0.017376 3.45 
pair_coeff ${pistontype} ${zHtype} lj/cut/tip4p/long 0.01137 2.885 # piston-zH
pair_coeff 5 ${zHtype} lj/cut/tip4p/long 0.01137 2.885 
pair_coeff 5 8 lj/cut/tip4p/long 0.01137 2.885 
pair_coeff ${NAtype} ${NAtype} lj/cut/tip4p/long 0.1684 2.2589 # NA-NA
pair_coeff 6 ${NAtype} lj/cut/tip4p/long 0.1684 2.2589 
pair_coeff 6 6 lj/cut/tip4p/long 0.1684 2.2589 
pair_coeff ${NAtype} ${zCtype} lj/cut/tip4p/long 0.1088 2.9044 # NA-zC
pair_coeff 6 ${zCtype} lj/cut/tip4p/long 0.1088 2.9044 
pair_coeff 6 7 lj/cut/tip4p/long 0.1088 2.9044 
pair_coeff ${NAtype} ${zHtype} lj/cut/tip4p/long 0.071196 2.3395 # NA-zH
pair_coeff 6 ${zHtype} lj/cut/tip4p/long 0.071196 2.3395 
pair_coeff 6 8 lj/cut/tip4p/long 0.071196 2.3395 

kspace_style pppm/tip4p 1.0e-4

# Bond and angles coeffs
# Syntax: angle_coeff N spring_constant theta_0
bond_coeff * 0.0 0.0 # Zero by default
angle_coeff * 0.0 0.0 # Zero by default

# Water
bond_coeff  ${waterbond} 0.0 0.9572 # H2O bond (TIP4P-2005)
bond_coeff  1 0.0 0.9572 
angle_coeff ${waterangle} 0.0 104.52  # H2O angle (TIP4P-2005)
angle_coeff 1 0.0 104.52  

neighbor        2.0 bin
neigh_modify	every 1 delay 10 check yes

# ------------- Setup ----------------
# For the equilibration phase, keep the piston rigid.
fix pistonfreeze bothpistons setforce 0.0 0.0 0.0

# Make sure the thermostat is looking at the relevant atoms by defining a new temperature calculation that only looks at the moveable atoms
compute selective_thermostat thermostat_target temp
# And require LAMMPS to use this compute when doing anything related to temperature
thermo_modify temp selective_thermostat
WARNING: Temperature for thermo pressure is not for group all (../thermo.cpp:445)

# ------------- Minimization ----------------
thermo_style one
WARNING: New thermo_style command, previous thermo_modify settings will be lost (../output.cpp:680)
thermo 10
run 0
PPPM initialization ...
  extracting TIP4P info from pair style
  G vector (1/distance) = 0.2032
  grid = 15 15 30
  stencil order = 5
  estimated absolute RMS force accuracy = 0.0275484
  estimated relative force accuracy = 8.29611e-05
  using double precision FFTs
  3d grid and FFT values/proc = 448 15
WARNING: Using a manybody potential with bonds/angles/dihedrals and special_bond exclusions (../pair.cpp:220)
Neighbor list info ...
  4 neighbor list requests
  update every 1 steps, delay 10 steps, check yes
  max neighbors/atom: 2000, page size: 100000
  master list distance cutoff = 15.3092
  ghost atom cutoff = 15.3092
  binsize = 7.6546, bins = 5 5 12
Setting up Verlet run ...
  Unit style  : real
  Current step: 0
  Time step   : 1
Memory usage per processor = 6.63952 Mbytes
Step Temp E_pair E_mol TotEng Press 
       0            0    659716.19            0    659716.19    2074150.7 
Loop time of 9.28598e-05 on 1728 procs for 0 steps with 6393 atoms

44.9% CPU use with 1728 MPI tasks x no OpenMP threads

MPI task timing breakdown:
Section |  min time  |  avg time  |  max time  |%varavg| %total
---------------------------------------------------------------
Pair    | 0          | 0          | 0          |   0.0 |  0.00
Bond    | 0          | 0          | 0          |   0.0 |  0.00
Kspace  | 0          | 0          | 0          |   0.0 |  0.00
Neigh   | 0          | 0          | 0          |   0.0 |  0.00
Comm    | 0          | 0          | 0          |   0.0 |  0.00
Output  | 0          | 0          | 0          |   0.0 |  0.00
Modify  | 0          | 0          | 0          |   0.0 |  0.00
Other   |            | 9.286e-05  |            |       |100.00

Nlocal:    3.69965 ave 11 max 0 min
Histogram: 489 102 158 231 227 272 121 85 35 8
Nghost:    2657.9 ave 3586 max 1457 min
Histogram: 147 357 36 36 144 17 129 184 415 263
Neighs:    2050.28 ave 6895 max 0 min
Histogram: 513 165 173 234 267 181 126 45 18 6
FullNghs:  4100.56 ave 13678 max 0 min
Histogram: 488 119 235 282 242 191 103 50 13 5

Total # of neighbors = 7085776
Ave neighs/atom = 1108.36
Ave special neighs/atom = 1.60582
Neighbor list builds = 0
Dangerous builds = 0

fix freezewater saltwater setforce 0.0 0.0 0.0
minimize 1.0e-4 1.0e-6 1000 1000
WARNING: Resetting reneighboring criteria during minimization (../min.cpp:168)
PPPM initialization ...
  extracting TIP4P info from pair style
  G vector (1/distance) = 0.2032
  grid = 15 15 30
  stencil order = 5
  estimated absolute RMS force accuracy = 0.0275484
  estimated relative force accuracy = 8.29611e-05
  using double precision FFTs
  3d grid and FFT values/proc = 448 15
WARNING: Using a manybody potential with bonds/angles/dihedrals and special_bond exclusions (../pair.cpp:220)
Neighbor list info ...
  4 neighbor list requests
  update every 1 steps, delay 0 steps, check yes
  max neighbors/atom: 2000, page size: 100000
  master list distance cutoff = 15.3092
  ghost atom cutoff = 15.3092
  binsize = 7.6546, bins = 5 5 12
Setting up cg style minimization ...
  Unit style: real
Memory usage per processor = 7.76452 Mbytes
Step Temp E_pair E_mol TotEng Press 
       0            0    659716.19            0    659716.19    2074150.7 
       7            0    655686.64            0    655686.64    2069603.7 
Loop time of 0.0529407 on 1728 procs for 7 steps with 6393 atoms

99.6% CPU use with 1728 MPI tasks x no OpenMP threads

Minimization stats:
  Stopping criterion = energy tolerance
  Energy initial, next-to-last, final = 
          659716.19374       655714.61717      655686.635406
  Force two-norm initial, final = 29297.8 247.807
  Force max component initial, final = 19172.5 58.7854
  Final line search alpha, max atom move = 0.00126987 0.0746495
  Iterations, force evaluations = 7 8

MPI task timing breakdown:
Section |  min time  |  avg time  |  max time  |%varavg| %total
---------------------------------------------------------------
Pair    | 1.7643e-05 | 0.0010462  | 0.003212   |   2.3 |  1.98
Bond    | 0          | 5.0527e-06 | 3.0041e-05 |   0.1 |  0.01
Kspace  | 0.028066   | 0.034819   | 0.036973   |   0.9 | 65.77
Neigh   | 0          | 0          | 0          |   0.0 |  0.00
Comm    | 0.0028236  | 0.0075325  | 0.018588   |   3.4 | 14.23
Output  | 0          | 0          | 0          |   0.0 |  0.00
Modify  | 0          | 3.3475e-06 | 1.3828e-05 |   0.1 |  0.01
Other   |            | 0.009535   |            |       | 18.01

Nlocal:    3.69965 ave 11 max 0 min
Histogram: 489 102 158 231 227 272 121 85 35 8
Nghost:    2657.9 ave 3586 max 1457 min
Histogram: 147 357 36 36 144 17 129 184 415 263
Neighs:    2050.28 ave 6895 max 0 min
Histogram: 513 165 173 234 267 181 126 45 18 6
FullNghs:  4100.56 ave 13678 max 0 min
Histogram: 488 119 235 282 242 191 103 50 13 5

Total # of neighbors = 7085776
Ave neighs/atom = 1108.36
Ave special neighs/atom = 1.60582
Neighbor list builds = 0
Dangerous builds = 0
unfix freezewater

fix relax all box/relax x 0.0 y 0.0
minimize 1.0e-4 1.0e-6 100 1000
WARNING: Resetting reneighboring criteria during minimization (../min.cpp:168)
PPPM initialization ...
  extracting TIP4P info from pair style
  G vector (1/distance) = 0.2032
  grid = 15 15 30
  stencil order = 5
  estimated absolute RMS force accuracy = 0.0275484
  estimated relative force accuracy = 8.29611e-05
  using double precision FFTs
  3d grid and FFT values/proc = 448 15
WARNING: Using a manybody potential with bonds/angles/dihedrals and special_bond exclusions (../pair.cpp:220)
Setting up cg style minimization ...
  Unit style: real
Memory usage per processor = 7.76452 Mbytes
Step Temp E_pair E_mol TotEng Press Volume 
       7            0    655686.64            0    655686.64    2069603.7    98376.225 
      10            0    653267.43            0    653267.43    2061643.6     98429.17 
      20            0    645263.32            0    645263.32    2035334.2    98605.821 
      30            0    637350.82            0    637350.82    2009367.4    98782.735 
      40            0     629528.8            0     629528.8    1983738.5    98959.911 
      50            0    621796.52            0    621796.52      1958444    99137.349 
      60            0    614152.42            0    614152.42    1933477.6    99315.048 
      70            0    606596.07            0    606596.07    1908837.2    99493.007 
      80            0    599126.41            0    599126.41    1884518.1    99671.227 
      90            0     591741.9            0     591741.9    1860514.2    99849.707 
     100            0    584442.01            0    584442.01      1836823    100028.45 
     107            0    579381.56            0    579381.56    1820421.7    100153.72 
Loop time of 0.830515 on 1728 procs for 100 steps with 6393 atoms

97.3% CPU use with 1728 MPI tasks x no OpenMP threads

Minimization stats:
  Stopping criterion = max iterations
  Energy initial, next-to-last, final = 
         655686.635406       580101.94204      579381.559417
  Force two-norm initial, final = 6.32776e+06 5.61097e+06
  Force max component initial, final = 4.95661e+06 4.37271e+06
  Final line search alpha, max atom move = 2.28406e-11 9.98751e-05
  Iterations, force evaluations = 100 100

MPI task timing breakdown:
Section |  min time  |  avg time  |  max time  |%varavg| %total
---------------------------------------------------------------
Pair    | 0.00019956 | 0.016656   | 0.051014   |   9.0 |  2.01
Bond    | 9.2983e-06 | 5.4726e-05 | 0.00015783 |   0.4 |  0.01
Kspace  | 0.5032     | 0.58574    | 0.61682    |   2.8 | 70.53
Neigh   | 0          | 0          | 0          |   0.0 |  0.00
Comm    | 0.036809   | 0.089971   | 0.21392    |  11.0 | 10.83
Output  | 0.0043058  | 0.0045705  | 0.0048661  |   0.1 |  0.55
Modify  | 1.0252e-05 | 2.6693e-05 | 5.2214e-05 |   0.1 |  0.00
Other   |            | 0.1335     |            |       | 16.07

Nlocal:    3.69965 ave 11 max 0 min
Histogram: 489 102 158 231 226 273 122 84 35 8
Nghost:    2657.17 ave 3585 max 1457 min
Histogram: 147 357 36 36 144 17 129 183 414 265
Neighs:    2050.28 ave 6895 max 0 min
Histogram: 513 165 173 233 269 180 127 44 18 6
FullNghs:  4100.56 ave 13678 max 0 min
Histogram: 488 119 235 281 243 191 103 50 13 5

Total # of neighbors = 7085764
Ave neighs/atom = 1108.36
Ave special neighs/atom = 1.60582
Neighbor list builds = 0
Dangerous builds = 0
unfix relax
unfix pistonfreeze

# ------------- Equilibration ----------------
fix pistonkeep bothpistons setforce 0.0 0.0 NULL
fix piston1thrust piston1 aveforce NULL NULL 0.01 # squeezing the water between two pistons at about 150 MPa each
fix piston2thrust piston2 aveforce NULL NULL -0.01
fix 1 water shake 1.0e-4 100 0 b ${waterbond} a ${waterangle}
fix 1 water shake 1.0e-4 100 0 b 1 a ${waterangle}
fix 1 water shake 1.0e-4 100 0 b 1 a 1
Finding SHAKE clusters ...
  0 = # of size 2 clusters
  0 = # of size 3 clusters
  0 = # of size 4 clusters
  1711 = # of frozen angles
fix NVTequilib thermostat_target nvt temp 300 300 50
timestep 0.5

thermo 1000
dump    equilibdump not_hy atom 100 single.equilib.lammpstrj
run     1000
PPPM initialization ...
  extracting TIP4P info from pair style
  G vector (1/distance) = 0.202969
  grid = 15 15 30
  stencil order = 5
  estimated absolute RMS force accuracy = 0.0277393
  estimated relative force accuracy = 8.35361e-05
  using double precision FFTs
  3d grid and FFT values/proc = 448 15
WARNING: Using a manybody potential with bonds/angles/dihedrals and special_bond exclusions (../pair.cpp:220)
Neighbor list info ...
  4 neighbor list requests
  update every 1 steps, delay 10 steps, check yes
  max neighbors/atom: 2000, page size: 100000
  master list distance cutoff = 15.3092
  ghost atom cutoff = 15.3092
  binsize = 7.6546, bins = 5 5 12
Setting up Verlet run ...
  Unit style  : real
  Current step: 107
  Time step   : 0.5
Memory usage per processor = 7.51452 Mbytes
Step Temp E_pair E_mol TotEng Press 
     107            0    579381.56            0    579381.56    1491862.9 
    1000    299.06378     577200.7            0    581373.59      1808801 
    1107    286.63726    577250.88            0    581250.38    1808794.1 
Loop time of 11.5682 on 1728 procs for 1000 steps with 6393 atoms

Performance: 3.734 ns/day, 6.427 hours/ns, 86.444 timesteps/s
99.9% CPU use with 1728 MPI tasks x no OpenMP threads

MPI task timing breakdown:
Section |  min time  |  avg time  |  max time  |%varavg| %total
---------------------------------------------------------------
Pair    | 0.0019042  | 0.091317   | 0.24199    |  20.3 |  0.79
Bond    | 0.00011849 | 0.00019892 | 0.00045395 |   0.3 |  0.00
Kspace  | 3.3556     | 3.905      | 4.1648     |   8.2 | 33.76
Neigh   | 1.4164     | 1.4825     | 1.499      |   1.9 | 12.82
Comm    | 0.37633    | 1.2112     | 2.5413     |  39.9 | 10.47
Output  | 0.02883    | 1.2683     | 2.5848     |  66.5 | 10.96
Modify  | 1.4539     | 2.2669     | 2.9801     |  25.0 | 19.60
Other   |            | 1.343      |            |       | 11.61

Nlocal:    3.69965 ave 11 max 0 min
Histogram: 485 104 161 232 225 282 113 74 36 16
Nghost:    2616.76 ave 3410 max 1435 min
Histogram: 152 280 22 122 121 23 139 85 231 553
Neighs:    2017.44 ave 6814 max 0 min
Histogram: 507 172 172 241 271 201 99 42 15 8
FullNghs:  4034.88 ave 13203 max 0 min
Histogram: 484 117 233 274 235 214 93 47 23 8

Total # of neighbors = 6972264
Ave neighs/atom = 1090.61
Ave special neighs/atom = 1.60582
Neighbor list builds = 42
Dangerous builds = 0

write_restart single.*.restart
System init for write_restart ...
PPPM initialization ...
  extracting TIP4P info from pair style
  G vector (1/distance) = 0.202969
  grid = 15 15 30
  stencil order = 5
  estimated absolute RMS force accuracy = 0.0277393
  estimated relative force accuracy = 8.35361e-05
  using double precision FFTs
  3d grid and FFT values/proc = 448 15
WARNING: Using a manybody potential with bonds/angles/dihedrals and special_bond exclusions (../pair.cpp:220)
print "Equilibration completed."
Equilibration completed.
unfix NVTequilib
undump equilibdump

# ------------- Dynamics --------
unfix piston1thrust
unfix piston2thrust

fix piston1push piston1 aveforce NULL NULL ${pressure}
fix piston1push piston1 aveforce NULL NULL 0.03
fix piston2push piston2 aveforce NULL NULL ${1atm}
fix piston2push piston2 aveforce NULL NULL -4.1e-05
fix NVT thermostat_target nvt temp 300 300 50

thermo 1000

# Counting the number of waters and ions in the feed region
region feedzone block INF INF INF INF INF ${zmembrane1} units box
region feedzone block INF INF INF INF INF 0 units box
variable num_feed_waters equal "count(ox,feedzone)"
variable num_feed_na equal "count(na,feedzone)"
variable num_feed_cl equal "count(cl,feedzone)"

thermo_style    custom step temp etotal vol press v_num_feed_waters v_num_feed_na v_num_feed_cl
restart 2500000 single.dynamics.restart

dump    fulldump     all atom 1000 single.dynamics.lammpstrj
run     1800000
PPPM initialization ...
  extracting TIP4P info from pair style
  G vector (1/distance) = 0.202969
  grid = 15 15 30
  stencil order = 5
  estimated absolute RMS force accuracy = 0.0277393
  estimated relative force accuracy = 8.35361e-05
  using double precision FFTs
  3d grid and FFT values/proc = 448 15
WARNING: Using a manybody potential with bonds/angles/dihedrals and special_bond exclusions (../pair.cpp:220)
Setting up Verlet run ...
  Unit style  : real
  Current step: 1107
  Time step   : 0.5
Memory usage per processor = 7.51452 Mbytes
Step Temp TotEng Volume Press num_feed num_feed num_feed 
    1107    286.63726    581250.38    100153.72    1808794.1         1297           12           12 
    2000    290.96481     581402.4    100153.72    1808931.3         1297           12           12 
    3000    290.77644    581230.52    100153.72    1808820.8         1297           12           12 
    4000    295.49229    581196.12    100153.72      1808763         1297           12           12 
    5000    286.36256     581037.3    100153.72    1808672.9         1297           12           12 
    6000    298.34022    581224.38    100153.72    1808689.3         1297           12           12 
    7000    286.37649    581048.28    100153.72    1809072.2         1297           12           12 
    8000    287.91092    580976.72    100153.72    1809308.4         1297           12           12 
    9000    289.96534    580895.63    100153.72    1809068.6         1297           12           12 
   10000    296.97033    581058.03    100153.72    1809124.2         1297           12           12 
   11000    289.18042    580847.05    100153.72    1808981.9         1297           12           12 
   12000     289.6325    580880.82    100153.72    1809392.2         1296           12           12 
   13000    286.07211    580722.31    100153.72      1809133         1296           12           12 
   14000    302.72559    580895.51    100153.72    1809173.7         1296           12           12 
   15000    299.16434    580875.53    100153.72    1809369.4         1296           12           12 
   16000    295.83187    580673.43    100153.72    1809280.1         1296           12           12 
   17000    296.61464    580672.12    100153.72    1809373.7         1295           12           12 
   18000    294.99429    580652.78    100153.72    1809737.8         1296           12           12 
   19000    296.21403     580592.9    100153.72    1809604.4         1296           12           12 
   20000    295.97526    580722.58    100153.72    1809320.5         1296           12           12 
   21000    302.26079    580635.49    100153.72      1809053         1296           12           12 
   22000    292.12227    580612.64    100153.72    1809440.4         1295           12           12 
   23000    294.36387    580503.74    100153.72    1809414.2         1295           12           12 
   24000    295.19822    580683.15    100153.72    1809613.8         1294           12           12 
   25000    286.10271    580655.78    100153.72    1809117.5         1295           12           12 
   26000      298.314    580858.67    100153.72    1809239.8         1296           12           12 
   27000      288.325     580776.2    100153.72      1809029         1296           12           12 
   28000    295.53707    580992.34    100153.72    1809134.7         1297           12           12 
   29000    291.04758    580839.15    100153.72    1808640.4         1297           12           12 
   30000    292.00478    581052.27    100153.72    1808840.4         1296           12           12 
   31000    295.15041    581015.81    100153.72    1808671.5         1297           12           12 
   32000    294.53354    580877.15    100153.72    1808962.3         1297           12           12 
   33000    299.59468    581158.73    100153.72    1809147.2         1296           12           12 
   34000    289.75278    581099.32    100153.72    1808842.4         1297           12           12 
   35000    296.86721    581145.91    100153.72    1809057.6         1297           12           12 
   36000     296.1133    580969.46    100153.72      1809097         1297           12           12 
   37000     292.3219    580974.93    100153.72    1808846.6         1296           12           12 
   38000    293.41125    580967.47    100153.72      1809094         1297           12           12 
   39000    304.62365    581076.91    100153.72    1808813.3         1297           12           12 
   40000     295.9877     580944.4    100153.72    1809161.8         1296           12           12 
   41000    296.03287    580826.73    100153.72    1809070.6         1296           12           12 
   42000    291.50987    580809.16    100153.72    1809489.4         1295           12           12 
   43000    291.63712    580849.88    100153.72    1809092.5         1295           12           12 
   44000    295.46035    580803.22    100153.72    1809247.1         1296           12           12 
   45000    301.75763    580813.62    100153.72    1809570.8         1296           12           12 
   46000    294.11883    580600.71    100153.72      1809296         1295           12           12 
   47000    290.69096    580675.47    100153.72    1809375.7         1295           12           12 
   48000    297.86893    580728.95    100153.72    1809213.5         1296           12           12 
   49000      294.475    580642.22    100153.72    1809672.8         1296           12           12 
   50000    299.13112    580543.54    100153.72      1809540         1296           12           12 
   51000    292.94601    580726.45    100153.72    1809667.8         1295           12           12 
   52000    297.72394    580788.97    100153.72    1809532.7         1295           12           12 
   53000    291.95114    580677.62    100153.72    1809515.6         1295           12           12 
   54000    287.39073    580657.28    100153.72    1809582.6         1294           12           12 
   55000    292.13969    580754.39    100153.72    1809716.6         1295           12           12 
   56000    294.34437    580891.58    100153.72    1809176.1         1295           12           12 
   57000    288.14113    580786.05    100153.72      1809220         1295           12           12 
   58000    289.13332    580766.25    100153.72    1809122.8         1295           12           12 
   59000    295.51897    580814.95    100153.72    1809044.8         1295           12           12 
   60000     298.6223     581038.4    100153.72    1809318.9         1295           12           12 
   61000    295.98374    580957.63    100153.72    1809300.5         1295           12           12 
   62000    293.00564    581041.66    100153.72    1808946.3         1295           12           12 
   63000    292.06038    580937.91    100153.72    1809110.2         1295           12           12 
   64000    294.36322    580875.14    100153.72    1809366.8         1295           12           12 
   65000    295.43631    580844.38    100153.72    1809083.6         1295           12           12 
   66000    290.91178    580768.87    100153.72    1809070.1         1295           12           12 
   67000    296.02834    580907.25    100153.72    1809340.8         1295           12           12 
   68000    293.22321    580721.27    100153.72      1809116         1295           12           12 
   69000    290.30391    580805.97    100153.72    1809301.7         1295           12           12 
   70000    292.65069    580763.59    100153.72      1809092         1294           12           12 
   71000    300.19091    580862.77    100153.72    1809580.5         1294           12           12 
   72000    293.36093    580769.15    100153.72    1809409.6         1292           12           12 
   73000    290.20411    580697.64    100153.72    1809702.7         1294           12           12 
   74000    290.78229    580662.28    100153.72    1809338.6         1294           12           12 
   75000     289.7814    580616.79    100153.72    1809263.6         1294           12           12 
   76000    294.05745    580582.66    100153.72    1809479.7         1294           12           12 
   77000    290.29723    580678.94    100153.72    1809639.9         1293           12           12 
   78000    294.31552    580645.79    100153.72    1809324.2         1293           12           12 
   79000    293.81522    580778.44    100153.72    1809236.6         1292           12           12 
   80000    292.29439    580574.43    100153.72    1809542.7         1294           12           12 
   81000    299.39618    580826.34    100153.72      1809392         1294           12           12 
   82000    291.03197    580752.51    100153.72      1809327         1294           12           12 
   83000    298.21707    580824.45    100153.72      1809590         1293           12           12 
   84000    291.73556    580648.75    100153.72    1809306.5         1292           12           12 
   85000    292.02143    580727.83    100153.72    1809439.6         1292           12           12 
   86000    291.36902    580808.17    100153.72    1809386.1         1292           12           12 
   87000    286.65328    580769.81    100153.72    1808865.1         1291           12           12 
   88000    290.45642    580665.19    100153.72    1809377.4         1291           12           12 
   89000    286.04829    580661.57    100153.72    1809109.7         1291           12           12 
   90000     296.3604       580815    100153.72    1809260.5         1292           12           12 
   91000     296.5359    580725.14    100153.72    1809041.9         1291           12           12 
   92000    293.46755    580876.76    100153.72      1809578         1291           12           12 
   93000    297.47537    580933.54    100153.72    1809423.3         1291           12           12 
   94000    299.57782    580877.06    100153.72    1809332.8         1291           12           12 
   95000    290.43261    580766.92    100153.72    1809242.3         1291           12           12 
   96000    298.45827    580758.71    100153.72    1809091.5         1291           12           12 
   97000    297.22264    580807.58    100153.72    1809104.6         1291           12           12 
   98000     291.8703    580672.87    100153.72    1809080.1         1291           12           12 
   99000    296.82608    580774.36    100153.72    1809329.2         1292           12           12 
  100000    290.95001     580707.8    100153.72    1809228.5         1293           12           12 
  101000    297.11007    580820.44    100153.72    1809495.9         1292           12           12 
  102000    293.58664    580637.48    100153.72    1809543.2         1292           12           12 
  103000    291.62312     580610.5    100153.72      1809805         1292           12           12 
  104000    289.20373    580608.08    100153.72    1809300.8         1292           12           12 
  105000    291.99017    580635.56    100153.72    1809572.1         1292           12           12 
  106000    291.54241       580685    100153.72    1809480.9         1292           12           12 
  107000    292.58383    580639.62    100153.72    1809848.8         1291           12           12 
  108000    290.13722    580799.47    100153.72    1809363.9         1292           12           12 
  109000    291.83031    580653.15    100153.72    1809651.8         1293           12           12 
  110000    296.33516    580536.73    100153.72    1809599.2         1292           12           12 
  111000    289.91332    580711.93    100153.72    1809455.3         1292           12           12 
  112000     290.7409    580588.89    100153.72    1809380.6         1291           12           12 
  113000    293.28475    580683.71    100153.72    1809189.2         1289           12           12 
  114000    292.72336    580712.47    100153.72    1809022.9         1289           12           12 
  115000    297.86507    580838.31    100153.72    1809302.2         1289           12           12 
  116000    296.74222    580827.76    100153.72    1809415.1         1289           12           12 
  117000    292.77186    580837.84    100153.72    1809226.7         1290           12           12 
  118000    287.64281    580714.93    100153.72    1809489.1         1290           12           12 
  119000    292.62777    580750.71    100153.72    1809249.4         1290           12           12 
  120000    299.52635    580909.91    100153.72    1809078.2         1289           12           12 
  121000    293.61626    580927.53    100153.72    1809506.4         1289           12           12 
  122000    291.78325    580858.65    100153.72    1809114.8         1289           12           12 
  123000    294.02648    580848.28    100153.72    1809378.2         1289           12           12 
  124000     291.3302    580686.97    100153.72      1809345         1290           12           12 
  125000     300.3301    580886.36    100153.72    1809234.6         1289           12           12 
  126000    296.54005    580716.78    100153.72    1809113.6         1289           12           12 
  127000    290.38736    580757.08    100153.72    1809317.9         1288           12           12 
  128000     289.0616    580608.13    100153.72    1809420.6         1288           12           12 
  129000    297.75931    580721.79    100153.72    1809186.4         1287           12           12 
  130000    302.45214    580770.17    100153.72    1809010.3         1287           12           12 
  131000    286.36174    580535.38    100153.72      1809546         1287           12           12 
  132000    296.10508    580706.04    100153.72    1809266.7         1287           12           12 
  133000    297.94514    580733.46    100153.72    1809403.4         1287           12           12 
  134000    289.21281    580575.65    100153.72    1809208.8         1287           12           12 
  135000    291.71826    580751.92    100153.72    1809446.6         1286           12           12 
  136000    293.79814    580646.51    100153.72    1809594.5         1286           12           12 
  137000    298.68451    580705.74    100153.72    1809445.8         1286           12           12 
  138000    293.21229    580635.26    100153.72    1809454.9         1286           12           12 
  139000    299.59872    580598.36    100153.72      1809129         1286           12           12 
  140000    291.95342    580622.31    100153.72      1809816         1286           12           12 
  141000    296.51193    580679.49    100153.72    1809421.1         1287           12           12 
  142000    293.66472    580617.48    100153.72    1809315.3         1288           12           12 
  143000    290.24681    580523.36    100153.72      1809258         1288           12           12 
  144000    292.62397     580600.8    100153.72    1809342.7         1288           12           12 
  145000    296.43352    580501.87    100153.72    1809464.6         1288           12           12 
  146000    297.74856    580670.08    100153.72      1809532         1288           12           12 
  147000    292.04612    580675.75    100153.72    1809659.2         1289           12           12 
  148000    293.73062    580769.59    100153.72    1809079.1         1289           12           12 
  149000    294.66283    580772.67    100153.72    1809065.8         1288           12           12 
  150000    296.37214    580729.35    100153.72    1809235.1         1289           12           12 
  151000      294.853    580840.95    100153.72    1809130.1         1290           12           12 
  152000     293.7807    580775.62    100153.72    1809323.3         1289           12           12 
  153000    297.88425    580771.65    100153.72    1809562.3         1290           12           12 
  154000    298.68765    580663.31    100153.72    1809149.1         1290           12           12 
  155000    297.66294    580850.75    100153.72    1809111.6         1290           12           12 
  156000    289.91925    580722.11    100153.72      1809254         1289           12           12 
  157000    293.01131    580715.47    100153.72    1809338.1         1289           12           12 
  158000    286.10693    580563.51    100153.72    1809251.4         1290           12           12 
  159000    296.93888    580811.18    100153.72    1809273.1         1289           12           12 
  160000    289.64577    580668.65    100153.72    1809659.4         1288           12           12 
  161000    295.08583    580669.18    100153.72    1809414.5         1288           12           12 
  162000    286.80655    580563.15    100153.72    1809174.2         1288           12           12 
  163000    292.66733    580616.77    100153.72    1809185.8         1288           12           12 
  164000    289.07406     580575.9    100153.72    1809669.6         1288           12           12 
  165000    292.59756     580554.7    100153.72    1809534.4         1288           12           12 
  166000    292.33506     580466.8    100153.72    1809591.2         1288           12           12 
  167000    289.50239    580576.61    100153.72    1809565.9         1288           12           12 
  168000    298.21728    580630.82    100153.72    1809528.5         1288           12           12 
  169000    291.70681    580528.26    100153.72    1809438.5         1287           12           12 
  170000    292.76341     580664.3    100153.72    1809212.6         1288           12           12 
  171000    289.22366    580572.14    100153.72    1809533.9         1288           12           12 
  172000    290.89369    580483.86    100153.72    1809372.6         1287           12           12 
  173000    293.97083    580713.51    100153.72    1809326.9         1287           12           12 
  174000     295.2854    580603.82    100153.72    1809301.8         1287           12           12 
  175000    294.16374     580782.9    100153.72    1809247.5         1287           12           12 
  176000    296.14577    580853.81    100153.72    1809254.1         1287           12           12 
  177000    293.79058    580828.46    100153.72    1809301.3         1288           12           12 
  178000    294.57434    580783.94    100153.72    1809261.1         1288           12           12 
  179000    299.62707    580827.57    100153.72    1809155.7         1288           12           12 
  180000    295.58751    580789.01    100153.72    1809130.2         1288           12           12 
  181000     296.0444    580790.75    100153.72    1809378.7         1288           12           12 
  182000     296.3997     580723.6    100153.72    1809106.6         1289           12           12 
  183000    293.17237    580671.25    100153.72    1809341.9         1288           12           12 
  184000    284.83633    580591.22    100153.72    1809442.1         1289           12           12 
  185000    290.90209    580757.21    100153.72    1809391.9         1289           12           12 
  186000    293.17784    580738.69    100153.72    1809487.9         1289           12           12 
  187000    290.97071    580670.94    100153.72    1809299.1         1289           12           12 
  188000    296.67724    580716.98    100153.72      1809307         1290           12           12 
  189000    290.06454    580608.62    100153.72    1809265.7         1290           12           12 
  190000    288.18899    580640.57    100153.72    1809441.4         1290           12           12 
  191000    294.70772    580716.45    100153.72    1809383.8         1290           12           12 
  192000    297.39508    580728.03    100153.72    1809383.7         1290           12           12 
  193000      292.169    580691.06    100153.72    1809743.6         1291           12           12 
  194000    289.47119    580581.67    100153.72    1809279.8         1290           12           12 
  195000    291.69201    580537.43    100153.72      1809493         1289           12           12 
  196000    299.49467    580763.31    100153.72    1809075.5         1290           12           12 
  197000    290.25213    580579.57    100153.72    1809695.6         1291           12           12 
  198000     289.0127    580592.87    100153.72    1809321.1         1290           12           12 
  199000    303.52946    580765.54    100153.72      1809364         1290           12           12 
  200000    295.00942    580767.17    100153.72      1809493         1289           12           12 
  201000    289.72957    580593.21    100153.72    1809330.1         1289           12           12 
  202000    295.88259    580698.81    100153.72    1809249.3         1290           12           12 
  203000    293.74349    580657.19    100153.72    1809419.6         1290           12           12 
  204000    291.43966    580651.96    100153.72    1809493.2         1290           12           12 
  205000    291.58996    580733.88    100153.72    1809349.1         1290           12           12 
  206000    289.60182    580580.57    100153.72    1809210.1         1290           12           12 
  207000    298.15885     580753.7    100153.72    1809039.3         1290           12           12 
  208000    295.30671    580663.67    100153.72    1809354.3         1291           12           12 
  209000    295.25893    580843.66    100153.72    1809214.8         1291           12           12 
  210000    298.55593    580713.43    100153.72    1809277.2         1292           12           12 
  211000    294.38905    580990.94    100153.72    1809144.5         1292           12           12 
  212000    300.32054    580786.82    100153.72      1809492         1292           12           12 
  213000    303.53217    580860.62    100153.72    1809193.6         1291           12           12 
  214000    289.51454    580617.71    100153.72    1809431.9         1291           12           12 
  215000    293.03899    580555.83    100153.72      1809335         1291           12           12 
  216000     293.7097    580710.03    100153.72    1809196.7         1291           12           12 
  217000    295.05213    580732.56    100153.72    1809344.2         1290           12           12 
  218000    299.10538    580769.58    100153.72    1809420.2         1291           12           12 
  219000    296.15554    580749.83    100153.72      1809307         1291           12           12 
  220000    298.55685     580688.3    100153.72      1809455         1291           12           12 
  221000    292.45884       580546    100153.72    1809587.9         1290           12           12 
  222000    295.22761    580630.62    100153.72    1809992.7         1290           12           12 
  223000    301.74637    580678.92    100153.72    1809486.5         1289           12           12 
  224000    295.83692    580553.38    100153.72      1809466         1288           12           12 
  225000     293.4418    580563.89    100153.72      1809719         1288           12           12 
  226000    291.40503    580539.99    100153.72    1809425.4         1288           12           12 
  227000    292.78616    580429.73    100153.72    1809565.9         1287           12           12 
  228000    297.14914    580727.28    100153.72    1809118.7         1286           12           12 
  229000    294.57934    580740.69    100153.72    1809470.9         1286           12           12 
  230000    297.13705    580654.67    100153.72    1809475.3         1286           12           12 
  231000    294.06006    580685.11    100153.72    1809703.5         1286           12           12 
  232000    291.58138     580659.6    100153.72    1809016.5         1286           12           12 
  233000    294.29869    580714.86    100153.72    1809605.8         1285           12           12 
  234000    294.67866    580678.31    100153.72    1809507.6         1285           12           12 
  235000    282.66692    580518.19    100153.72    1809411.8         1286           12           12 
  236000    292.84172    580572.26    100153.72    1809324.7         1287           12           12 
  237000    304.76886    580826.13    100153.72    1809505.6         1286           12           12 
  238000    294.43058    580707.03    100153.72    1809402.1         1286           12           12 
  239000    291.76168    580637.54    100153.72    1809363.5         1286           12           12 
  240000    291.70755    580662.54    100153.72    1809337.7         1286           12           12 
  241000     293.1122    580820.07    100153.72    1809548.7         1286           12           12 
  242000    297.18599    580757.45    100153.72    1809516.4         1286           12           12 
  243000     295.8999    580814.39    100153.72    1809583.5         1286           12           12 
  244000    285.04447    580657.44    100153.72    1809403.5         1286           12           12 
  245000    290.51594     580603.5    100153.72    1809353.3         1285           12           12 
  246000    294.97603    580569.63    100153.72    1809299.1         1285           12           12 
  247000    294.97304    580581.26    100153.72    1809483.9         1285           12           12 
  248000    291.82846    580538.72    100153.72    1809326.2         1286           12           12 
  249000    298.75788    580564.56    100153.72    1809559.6         1287           12           12 
  250000    295.17275    580660.28    100153.72    1809126.1         1288           12           12 
  251000    296.69693    580759.76    100153.72    1809423.4         1287           12           12 
  252000    295.58052    580662.83    100153.72    1809690.7         1287           12           12 
  253000    293.40334    580644.41    100153.72    1809321.7         1287           12           12 
  254000    291.31363    580588.84    100153.72    1809206.2         1288           12           12 
  255000    296.49939    580653.72    100153.72    1809427.6         1288           12           12 
  256000    295.58308    580711.49    100153.72    1809292.6         1287           12           12 
  257000    296.88159    580762.73    100153.72    1809323.9         1287           12           12 
  258000    295.36195    580699.84    100153.72    1809194.6         1286           12           12 
  259000    294.85735    580778.77    100153.72    1809406.9         1285           12           12 
  260000    295.35069    580726.46    100153.72    1809377.9         1284           12           12 
  261000    294.33032    580682.84    100153.72    1809336.6         1282           12           12 
  262000    292.83838    580629.64    100153.72    1809324.9         1284           12           12 
  263000    292.81724    580637.62    100153.72    1809401.6         1283           12           12 
  264000    298.08597    580686.93    100153.72    1809624.8         1283           12           12 
  265000    294.80214    580632.27    100153.72    1809280.8         1284           12           12 
  266000    289.93152    580671.33    100153.72    1809244.4         1284           12           12 
  267000    290.41565    580621.57    100153.72    1809784.6         1283           12           12 
  268000    293.50699    580615.77    100153.72    1809570.7         1283           12           12 
  269000    294.22746    580700.06    100153.72    1809539.5         1282           12           12 
  270000    299.27082    580742.15    100153.72    1809479.6         1282           12           12 
  271000    294.57467    580676.97    100153.72    1809498.3         1280           12           12 
  272000     294.5049    580682.68    100153.72    1809560.9         1280           12           12 
  273000    291.23857    580672.69    100153.72    1809518.7         1280           12           12 
  274000    294.96115    580629.88    100153.72    1809526.4         1279           12           12 
  275000    291.58762    580620.97    100153.72      1809397         1279           12           12 
  276000     291.7328    580552.48    100153.72    1809173.4         1279           12           12 
  277000    290.84471    580648.18    100153.72    1809505.5         1279           12           12 
  278000    291.28129    580684.43    100153.72    1809407.5         1278           12           12 
  279000    294.65498    580795.86    100153.72    1809360.8         1278           12           12 
  280000     291.2427    580700.79    100153.72    1809195.7         1278           12           12 
  281000    294.65918    580766.36    100153.72    1809597.8         1278           12           12 
  282000    297.46671    580704.29    100153.72    1809240.5         1279           12           12 
  283000    298.01922    580718.95    100153.72    1809807.4         1278           12           12 
  284000    290.87536    580673.77    100153.72    1809773.2         1278           12           12 
  285000    294.53958    580712.01    100153.72      1809109         1278           12           12 
  286000    295.42774    580823.54    100153.72    1809505.5         1278           12           12 
  287000     293.5205    580654.63    100153.72    1809093.2         1278           12           12 
  288000    295.21575     580732.8    100153.72    1809524.3         1278           12           12 
  289000    292.48236    580575.04    100153.72    1809364.4         1279           12           12 
  290000    293.15865    580733.46    100153.72    1809232.2         1279           12           12 
  291000    295.58681    580748.41    100153.72    1809710.2         1280           12           12 
  292000    294.00293    580607.32    100153.72    1809450.6         1279           12           12 
  293000     297.7324     580727.1    100153.72    1809686.5         1279           12           12 
  294000    292.96239     580773.7    100153.72    1809534.1         1278           12           12 
  295000     292.1072    580692.41    100153.72    1809730.4         1279           12           12 
  296000    299.15731    580827.95    100153.72    1809024.7         1279           12           12 
  297000    294.44741    580661.43    100153.72    1809412.7         1280           12           12 
  298000    290.35995    580624.28    100153.72      1809268         1280           12           12 
  299000     290.3063     580619.6    100153.72    1809263.2         1280           12           12 
  300000     301.4882    580791.91    100153.72    1809345.5         1279           12           12 
  301000    295.52139    580843.97    100153.72    1809489.5         1279           12           12 
  302000    293.96311    580659.68    100153.72    1809498.8         1279           12           12 
  303000    294.15357     580789.6    100153.72    1809309.3         1279           12           12 
  304000    282.83566    580537.83    100153.72    1809759.6         1279           12           12 
  305000    298.31435    580622.04    100153.72    1809502.9         1279           12           12 
  306000    296.34133    580572.35    100153.72    1809251.2         1278           12           12 
  307000    299.14915    580705.64    100153.72    1809425.4         1278           12           12 
  308000    295.31278    580788.18    100153.72    1809482.9         1277           12           12 
  309000    298.58648    580627.55    100153.72    1809468.2         1277           12           12 
  310000    293.67977    580663.89    100153.72    1809667.9         1277           12           12 
  311000    294.11818    580613.63    100153.72    1809548.2         1276           12           12 
  312000    294.80788    580559.29    100153.72    1809636.6         1276           12           12 
  313000    288.83868    580559.04    100153.72    1809749.5         1276           12           12 
  314000    294.56755    580565.48    100153.72    1809293.4         1276           12           12 
  315000    296.03956    580627.94    100153.72    1809646.9         1274           12           12 
  316000    294.44168    580777.18    100153.72    1809136.5         1274           12           12 
  317000     294.7012    580682.55    100153.72    1809191.8         1274           12           12 
  318000    294.65086    580649.55    100153.72    1809194.9         1274           12           12 
  319000    298.90581    580834.66    100153.72    1809265.3         1274           12           12 
  320000    296.39612    580810.26    100153.72    1809588.6         1275           12           12 
  321000    289.76906    580583.88    100153.72    1809351.3         1275           12           12 
  322000    291.92963    580685.86    100153.72    1809409.8         1275           12           12 
  323000    287.35525    580674.97    100153.72    1809211.2         1274           12           12 
  324000    291.27014    580657.64    100153.72    1809553.2         1275           12           12 
  325000    293.26011    580523.06    100153.72    1809512.1         1275           12           12 
  326000    287.27973    580468.07    100153.72    1809212.3         1275           12           12 
  327000    293.63223    580517.81    100153.72    1809838.4         1274           12           12 
  328000    295.79078    580623.03    100153.72    1809159.1         1274           12           12 
  329000     288.7237    580556.16    100153.72      1809527         1274           12           12 
  330000    292.47885    580567.78    100153.72    1809550.8         1275           12           12 
  331000     292.9116    580539.75    100153.72    1809530.8         1275           12           12 
  332000     291.6765    580577.28    100153.72    1809349.6         1275           12           12 
  333000    295.87357    580533.77    100153.72    1809517.3         1276           12           12 
  334000    292.22592    580512.88    100153.72    1809728.1         1275           12           12 
  335000    297.05792    580658.51    100153.72    1809467.5         1277           12           12 
  336000    296.79876     580695.8    100153.72      1809352         1275           12           12 
  337000    297.15155    580749.74    100153.72    1809423.7         1275           12           12 
  338000    289.70975    580576.65    100153.72    1809248.2         1275           12           12 
  339000    288.89969    580512.45    100153.72    1809250.3         1275           12           12 
  340000    295.56825    580649.44    100153.72    1809221.4         1274           12           12 
  341000     294.4539    580734.02    100153.72    1809619.2         1273           12           12 
  342000    298.35272    580688.94    100153.72      1809431         1273           12           12 
  343000    288.99041    580641.44    100153.72    1809208.1         1272           12           12 
  344000    288.06863    580636.29    100153.72      1809326         1272           12           12 
  345000    295.75442    580676.87    100153.72    1809587.1         1272           12           12 
  346000    293.45896    580470.32    100153.72    1809213.9         1272           12           12 
  347000    297.83706    580609.34    100153.72    1809314.1         1271           12           12 
  348000    290.67263    580559.38    100153.72      1809473         1271           12           12 
  349000    294.19759    580620.76    100153.72    1809531.7         1272           12           12 
  350000    289.84565    580562.04    100153.72    1809328.4         1271           12           12 
  351000    292.06113    580603.57    100153.72    1809353.4         1270           12           12 
  352000    294.53683     580640.8    100153.72    1809671.8         1270           12           12 
  353000    286.65861    580505.96    100153.72    1809382.8         1270           12           12 
  354000    292.75425    580623.66    100153.72    1809456.5         1269           12           12 
  355000    290.70535    580481.24    100153.72    1809424.7         1270           12           12 
  356000    295.41843    580596.07    100153.72    1809281.4         1269           12           12 
  357000    289.26654     580535.2    100153.72    1809553.8         1269           12           12 
  358000    300.22345     580647.3    100153.72    1809389.4         1269           12           12 
  359000    293.88486    580517.57    100153.72      1809351         1270           12           12 
  360000    288.26732    580560.81    100153.72    1809779.9         1271           12           12 
  361000    294.42125    580538.83    100153.72    1809507.3         1272           12           12 
  362000    293.81939    580706.05    100153.72    1809577.5         1272           12           12 
  363000    302.26238    580807.73    100153.72    1809518.6         1272           12           12 
  364000    285.94583    580543.24    100153.72    1809089.4         1272           12           12 
  365000    290.88854    580713.92    100153.72      1809373         1271           12           12 
  366000     293.3135    580675.74    100153.72      1809340         1271           12           12 
  367000    292.80932     580871.8    100153.72    1809495.7         1271           12           12 
  368000    295.42306    580723.24    100153.72    1809357.3         1272           12           12 
  369000     292.0837    580589.75    100153.72    1809513.4         1271           12           12 
  370000    291.00502    580603.66    100153.72    1809376.5         1271           12           12 
  371000     297.0979    580649.63    100153.72    1809362.9         1272           12           12 
  372000    298.07504    580740.16    100153.72    1809630.8         1273           12           12 
  373000    300.13169    580737.41    100153.72    1809359.5         1272           12           12 
  374000     294.8968    580649.22    100153.72    1809493.2         1272           12           12 
  375000    289.16257    580528.11    100153.72    1809315.1         1272           12           12 
  376000    285.88578    580505.14    100153.72    1809161.4         1272           12           12 
  377000    293.33457    580617.99    100153.72    1809211.7         1272           12           12 
  378000     291.7325    580596.48    100153.72    1809220.3         1271           12           12 
  379000    292.07978    580658.33    100153.72    1809699.1         1272           12           12 
  380000    301.86204    580569.51    100153.72      1809537         1272           12           12 
  381000    298.84513     580619.2    100153.72    1809429.9         1272           12           12 
  382000    289.80103    580546.36    100153.72    1809376.5         1272           12           12 
  383000    299.20939    580621.04    100153.72    1809558.6         1271           12           12 
  384000    295.00368    580616.13    100153.72      1809329         1271           12           12 
  385000    295.82948    580675.92    100153.72    1809201.2         1271           12           12 
  386000    298.94715    580618.25    100153.72    1809222.7         1271           12           12 
  387000    292.09111    580496.77    100153.72    1809443.9         1271           12           12 
  388000    289.06213    580583.35    100153.72    1809654.2         1271           12           12 
  389000    288.32737    580548.15    100153.72    1809273.8         1270           12           12 
  390000    295.34327    580738.94    100153.72    1809424.9         1271           12           12 
  391000    301.20947    580629.14    100153.72    1809302.3         1272           12           12 
  392000    295.19067    580659.72    100153.72    1809278.7         1271           12           12 
  393000    288.74639    580591.67    100153.72    1809342.9         1271           12           12 
  394000    294.54602    580631.32    100153.72      1809296         1271           12           12 
  395000     289.0846    580571.75    100153.72    1809322.8         1271           12           12 
  396000    292.28259    580719.54    100153.72    1809600.6         1271           12           12 
  397000    297.21889    580739.69    100153.72      1809411         1271           12           12 
  398000    292.56084    580600.99    100153.72    1809191.1         1271           12           12 
  399000     294.2434    580740.08    100153.72    1809214.9         1271           12           12 
  400000    294.43349    580637.94    100153.72    1809249.9         1270           12           12 
  401000    293.69206    580692.84    100153.72    1809419.2         1270           12           12 
  402000     293.4201    580611.53    100153.72    1809478.7         1271           12           12 
  403000    288.02154    580522.91    100153.72    1809390.5         1271           12           12 
  404000    294.71835    580606.68    100153.72    1809334.3         1271           12           12 
  405000    292.00328    580603.83    100153.72    1809577.9         1271           12           12 
  406000    293.69203     580622.2    100153.72    1809352.8         1271           12           12 
  407000    288.97438    580503.73    100153.72    1809460.5         1272           12           12 
  408000    293.40568    580673.52    100153.72    1809313.1         1271           12           12 
  409000    289.87112    580654.97    100153.72    1809575.5         1272           12           12 
  410000     291.5164    580493.62    100153.72    1809247.3         1270           12           12 
  411000    295.55319    580634.72    100153.72      1809353         1270           12           12 
  412000    295.97266    580694.05    100153.72    1809384.7         1268           12           12 
  413000    292.15988    580667.97    100153.72    1809387.9         1269           12           12 
  414000    290.70026     580556.6    100153.72    1809416.7         1270           12           12 
  415000    297.05403    580630.18    100153.72    1809424.3         1269           12           12 
  416000    295.17767    580558.67    100153.72    1809516.6         1268           12           12 
  417000    292.24085    580668.78    100153.72    1809488.8         1269           12           12 
  418000    294.00023    580595.65    100153.72    1809194.9         1268           12           12 
  419000    291.13205    580559.24    100153.72    1809618.5         1268           12           12 
  420000     289.3724    580524.29    100153.72    1809482.7         1268           12           12 
  421000    292.93334    580623.12    100153.72    1809503.3         1268           12           12 
  422000    297.56363    580747.64    100153.72      1809376         1268           12           12 
  423000    293.30967    580864.57    100153.72      1809213         1268           12           12 
  424000    293.01415    580832.57    100153.72    1809349.5         1269           12           12 
  425000    296.52147    580836.09    100153.72    1809369.5         1269           12           12 
  426000    292.56096    580710.58    100153.72    1809072.5         1269           12           12 
  427000    292.24471    580603.46    100153.72    1809035.6         1269           12           12 
  428000    295.57531    580761.76    100153.72    1809428.2         1268           12           12 
  429000     293.3648    580655.22    100153.72    1809193.5         1267           12           12 
  430000    294.83259    580692.15    100153.72    1809781.8         1267           12           12 
  431000    295.79046    580824.98    100153.72    1809469.5         1267           12           12 
  432000     291.1385    580452.87    100153.72    1809429.4         1267           12           12 
  433000    288.06237    580500.96    100153.72    1809308.1         1268           12           12 
  434000    302.14184    580724.01    100153.72    1809468.8         1268           12           12 
  435000    288.99973    580434.79    100153.72      1809602         1268           12           12 
  436000    298.41426    580586.32    100153.72    1809581.1         1269           12           12 
  437000    293.11288    580491.19    100153.72    1809258.3         1269           12           12 
  438000    287.09359    580535.12    100153.72    1809689.4         1268           12           12 
  439000    296.92697    580490.72    100153.72    1809570.3         1269           12           12 
  440000     299.6023    580671.61    100153.72    1809477.1         1269           12           12 
  441000     296.8652    580597.21    100153.72    1809378.4         1269           12           12 
  442000    292.87577     580630.7    100153.72      1809848         1269           12           12 
  443000     294.8706    580737.49    100153.72    1809512.7         1269           12           12 
  444000     293.4656    580651.37    100153.72      1809600         1269           12           12 
  445000    293.82007    580634.61    100153.72    1809743.8         1269           12           12 
  446000     290.2729    580651.12    100153.72    1809188.8         1269           12           12 
  447000    294.11974    580633.37    100153.72    1809358.6         1269           12           12 
  448000    294.53595    580706.56    100153.72      1809226         1270           12           12 
  449000    294.29004     580605.4    100153.72    1809322.7         1269           12           12 
  450000    290.49773    580757.53    100153.72    1809310.1         1270           12           12 
  451000    292.56632    580784.94    100153.72    1809353.7         1269           12           12 
  452000    294.55082    580848.45    100153.72    1809471.7         1268           12           12 
  453000     287.7352    580723.77    100153.72    1809372.6         1268           12           12 
  454000    289.45432    580685.94    100153.72      1809272         1268           12           12 
  455000    293.88944    580730.23    100153.72    1809355.3         1268           12           12 
  456000    298.00476    580634.16    100153.72    1809238.4         1268           12           12 
  457000    289.25937    580471.56    100153.72    1809673.8         1268           12           12 
  458000    294.45475    580672.47    100153.72    1809665.6         1268           12           12 
  459000    293.29367    580470.14    100153.72      1809098         1268           12           12 
  460000    291.31795    580564.53    100153.72    1809484.1         1268           12           12 
  461000    297.63863    580703.74    100153.72      1809476         1269           12           12 
  462000    290.59406    580548.92    100153.72      1809620         1269           12           12 
  463000    293.47115    580565.32    100153.72    1809493.8         1269           12           12 
  464000    297.93119    580578.26    100153.72    1809495.5         1269           12           12 
  465000    298.24028    580690.84    100153.72      1809640         1268           12           12 
  466000    298.08551    580683.09    100153.72    1809328.1         1267           12           12 
  467000    289.87089    580543.51    100153.72    1809547.1         1268           12           12 
  468000    298.76969    580767.53    100153.72    1809699.8         1269           12           12 
  469000    295.37953    580595.68    100153.72      1809401         1269           12           12 
  470000    295.48473    580581.98    100153.72    1809213.1         1268           12           12 
  471000    292.34639    580594.33    100153.72    1809877.4         1268           12           12 
  472000    292.53123    580620.28    100153.72    1809335.7         1268           12           12 
  473000    286.97149    580566.31    100153.72    1809583.1         1268           12           12 
  474000    290.45102    580680.35    100153.72    1809518.3         1267           12           12 
  475000    293.60422    580752.13    100153.72    1809617.2         1267           12           12 
  476000    297.26485    580662.94    100153.72    1809471.7         1267           12           12 
  477000    294.36798    580547.79    100153.72    1809716.5         1267           12           12 
  478000     297.0031    580674.07    100153.72    1809550.5         1265           12           12 
  479000    294.90068    580653.53    100153.72    1809358.2         1265           12           12 
  480000    290.72644    580590.02    100153.72    1809257.2         1265           12           12 
  481000    290.72551    580523.92    100153.72    1809155.9         1265           12           12 
  482000    293.63783    580675.51    100153.72    1809222.6         1265           12           12 
  483000    294.96137    580646.03    100153.72    1809568.3         1265           12           12 
  484000    297.47989    580635.65    100153.72    1809329.7         1265           12           12 
  485000    288.65828    580557.47    100153.72      1809350         1265           12           12 
  486000    297.17133    580772.15    100153.72    1809134.2         1266           12           12 
  487000    294.17779    580559.66    100153.72    1809687.5         1265           12           12 
  488000    295.73921    580639.35    100153.72    1809089.5         1265           12           12 
  489000    290.77088    580679.89    100153.72    1809432.2         1265           12           12 
  490000    290.54197    580410.48    100153.72    1809198.4         1265           12           12 
  491000    300.83758    580768.28    100153.72    1809479.1         1265           12           12 
  492000    300.30284    580744.64    100153.72    1809306.3         1265           12           12 
  493000    290.32284    580471.55    100153.72    1809815.1         1265           12           12 
  494000    290.43925    580566.35    100153.72    1809184.4         1264           12           12 
  495000    294.43031    580694.33    100153.72    1809327.3         1264           12           12 
  496000    291.43483    580603.36    100153.72    1809490.5         1263           12           12 
  497000     281.5156    580450.01    100153.72    1809515.5         1264           12           12 
  498000    290.23226    580505.67    100153.72    1809372.9         1264           12           12 
  499000    296.36936    580629.54    100153.72      1809689         1265           12           12 
  500000    293.10909    580521.75    100153.72    1809300.7         1265           12           12 
  501000    289.96563    580594.53    100153.72      1809666         1265           12           12 
  502000    292.27752    580629.64    100153.72    1809281.9         1265           12           12 
  503000    290.17492    580510.22    100153.72    1809627.1         1265           12           12 
  504000    300.52151    580675.81    100153.72    1809576.3         1264           12           12 
  505000    294.87687    580517.66    100153.72    1809557.8         1264           12           12 
  506000    297.63768    580632.82    100153.72    1809416.7         1264           12           12 
  507000     285.0111    580572.94    100153.72    1809469.2         1264           12           12 
  508000    294.90611    580718.78    100153.72    1809460.3         1264           12           12 
  509000       290.47    580820.18    100153.72    1809342.3         1264           12           12 
  510000    287.71862    580603.26    100153.72    1809488.5         1264           12           12 
  511000    297.73942    580806.85    100153.72    1809479.8         1263           12           12 
  512000    291.25359    580637.81    100153.72    1809255.4         1263           12           12 
  513000    287.85879    580622.68    100153.72    1809767.7         1263           12           12 
  514000    296.47352    580724.31    100153.72    1809312.6         1263           12           12 
  515000    296.16225    580685.85    100153.72    1809413.4         1263           12           12 
  516000    293.00277    580603.13    100153.72    1809332.6         1263           12           12 
  517000    301.10556    580858.48    100153.72    1809430.8         1263           12           12 
  518000        297.8    580757.46    100153.72    1809684.8         1263           12           12 
  519000    292.36071    580772.58    100153.72    1809234.9         1262           12           12 
  520000    291.41728     580525.5    100153.72    1809263.8         1261           12           12 
  521000    294.39269    580612.73    100153.72      1809456         1261           12           12 
  522000    290.15642    580614.92    100153.72      1809750         1262           12           12 
  523000    288.89409    580656.99    100153.72    1809262.9         1263           12           12 
  524000    299.24655    580702.99    100153.72    1809479.5         1262           12           12 
  525000    292.70543    580661.65    100153.72    1809555.5         1262           12           12 
  526000    291.10692    580617.72    100153.72    1809496.5         1263           12           12 
  527000     298.9906    580667.97    100153.72    1809428.7         1261           12           12 
  528000     289.7249    580510.93    100153.72    1809331.3         1261           12           12 
  529000    289.85708     580565.6    100153.72      1809570         1261           12           12 
  530000    294.69242    580659.01    100153.72    1809524.8         1262           12           12 
  531000    290.59663    580548.79    100153.72    1809532.2         1260           12           12 
  532000    294.18157    580610.72    100153.72    1809352.1         1261           12           12 
  533000    288.93088    580506.06    100153.72    1809547.1         1260           12           12 
  534000    294.31001     580542.5    100153.72    1809576.6         1260           12           12 
  535000    290.42061    580635.45    100153.72    1809386.4         1260           12           12 
  536000    296.06612    580576.34    100153.72    1809332.3         1261           12           12 
  537000    287.05083    580539.11    100153.72    1809306.8         1261           12           12 
[...]
 1619000    297.90333    594288.89    100154.25    1811919.9          928           12           11 
 1620000    295.37526    594368.39    100154.25    1811597.6          929           12           11 
 1621000    296.07839    594298.92    100154.25    1811728.6          930           12           11 
 1622000    290.41655    594182.15    100154.25    1811708.9          930           12           11 
 1623000     295.0562    594353.12    100154.25    1811363.7          929           12           11 
 1624000    291.39556    594317.41    100154.25    1811453.2          930           12           11 
 1625000    284.49297    594113.63    100154.25    1811512.5          927           12           11 
 1626000    291.34957    594244.93    100154.25    1811279.1          927           12           11 
 1627000     290.6586    594260.95    100154.25    1811075.2          927           12           11 
 1628000    292.26845    594294.14    100154.25    1811555.3          926           12           11 
 1629000    286.56138    594102.72    100154.25    1811699.1          924           12           11 
 1630000     291.1822    594227.27    100154.25    1811794.2          926           12           11 
 1631000    290.44213    594265.86    100154.25    1811716.4          925           12           11 
 1632000     295.7419    594335.58    100154.25    1811543.4          924           12           11 
 1633000    297.49048     594340.8    100154.25    1811780.8          925           12           11 
 1634000    300.99394    594394.55    100154.25    1811394.6          925           12           11 
 1635000    288.29066    594188.99    100154.25    1811894.1          922           12           11 
 1636000    296.94189    594339.28    100154.25    1811537.6          922           12           11 
 1637000    295.43006    594283.44    100154.25    1811440.5          923           12           11 
 1638000    293.40673    594310.22    100154.25    1811722.6          922           12           11 
 1639000    297.55263    594562.63    100154.25    1811554.8          922           12           11 
 1640000    292.17511    594368.07    100154.25    1812079.2          923           12           11 
 1641000      292.028    594307.12    100154.25    1811378.5          922           12           11 
 1642000    291.87911    594311.51    100154.25      1811539          922           12           11 
 1643000    296.57906    594387.45    100154.25    1811833.8          920           12           11 
 1644000    291.79098    594395.52    100154.25    1811224.9          919           12           11 
 1645000    291.35948    594315.61    100154.25    1811659.7          918           12           11 
 1646000    292.59053     594492.5    100154.25    1811592.4          918           12           11 
 1647000    291.36722    594335.47    100154.25    1811491.9          918           12           11 
 1648000    289.67006    594292.62    100154.25    1811440.9          919           12           11 
 1649000    293.97619     594406.8    100154.25    1811634.8          919           12           11 
 1650000    283.23429    594314.37    100154.25    1811577.3          920           12           11 
 1651000    288.81105    594211.13    100154.25    1811517.9          919           12           11 
 1652000    295.85056    594275.51    100154.25    1811748.2          920           12           11 
 1653000    295.38503    594387.12    100154.25    1811729.3          918           12           11 
 1654000     298.4269    594229.34    100154.25    1811686.2          919           12           11 
 1655000    293.04174    594217.23    100154.25    1811812.4          919           12           11 
 1656000     295.4767    594316.23    100154.25    1811781.5          919           12           11 
 1657000    294.12241    594266.31    100154.25      1811895          920           12           11 
 1658000    289.43706    594030.93    100154.25    1811587.4          922           12           11 
 1659000    291.51971    594096.87    100154.25    1811668.2          922           12           11 
 1660000    292.56548    594238.07    100154.25    1811571.1          920           12           11 
 1661000    290.66203     594188.5    100154.25      1811690          920           12           11 
 1662000    295.01606    594298.58    100154.25    1811509.8          920           12           11 
 1663000     290.2695    594141.34    100154.25    1811583.3          920           12           11 
 1664000    288.96288    594227.51    100154.25    1811455.7          920           12           11 
 1665000    295.80086    594287.58    100154.25    1811653.9          920           12           11 
 1666000    290.50554    594156.58    100154.25    1811651.5          919           12           11 
 1667000    290.17684    594289.61    100154.25    1811550.4          919           12           11 
 1668000    295.94367    594238.45    100154.25    1811698.6          920           12           11 
 1669000    297.03542    594335.74    100154.25    1811482.4          917           12           11 
 1670000    293.14083    594322.29    100154.25    1811552.3          920           12           11 
 1671000    290.36197    594214.51    100154.25    1811651.8          916           12           11 
 1672000    291.51973    594255.76    100154.25    1811886.3          913           12           11 
 1673000    288.16854    594203.29    100154.25    1811482.1          913           12           11 
 1674000    293.48233     594401.2    100154.25      1811374          913           12           11 
 1675000    293.04657       594506    100154.25    1811441.7          914           12           11 
 1676000    296.60692    594451.19    100154.25    1811574.8          913           12           11 
 1677000    292.56491    594354.03    100154.25    1811469.4          915           12           11 
 1678000    290.98925    594312.97    100154.25    1811286.3          913           12           11 
 1679000    283.11961    594253.42    100154.25    1811433.9          913           12           11 
 1680000     284.5089    594352.15    100154.25      1811881          912           12           11 
 1681000    288.62168    594205.94    100154.25    1811503.7          910           12           11 
 1682000    297.24155    594333.87    100154.25    1811622.5          911           12           11 
 1683000    296.54554    594454.61    100154.25    1811931.4          909           12           11 
 1684000    288.67068    594326.55    100154.25      1811839          909           12           11 
 1685000    288.77261    594216.07    100154.25    1811819.4          911           12           11 
 1686000    289.91151    594257.12    100154.25    1811657.8          908           12           11 
 1687000    292.76399    594197.74    100154.25    1811885.2          908           12           11 
 1688000    291.61727    594176.16    100154.25    1811621.8          909           12           11 
 1689000    292.21574    594278.37    100154.25    1811798.1          909           12           11 
 1690000    286.34357    594229.87    100154.25      1811708          910           12           11 
 1691000    291.54842    594343.74    100154.25    1811658.4          912           12           11 
 1692000    297.26716    594392.96    100154.25    1811738.7          910           12           11 
 1693000    296.95971    594369.46    100154.25    1811508.5          911           12           11 
 1694000    295.91535    594407.99    100154.25    1811514.7          910           12           11 
 1695000    296.42765    594439.51    100154.25    1811541.6          908           12           11 
 1696000    293.69649    594289.37    100154.25    1811468.3          908           12           11 
 1697000    295.74376    594491.35    100154.25      1811864          905           12           11 
 1698000    292.15335    594336.86    100154.25    1811548.8          904           12           11 
 1699000    287.25233    594333.83    100154.25    1811492.1          905           12           11 
 1700000    287.24387    594228.76    100154.25    1811356.5          904           12           11 
 1701000    295.01892    594362.06    100154.25      1811277          905           12           11 
 1702000     294.1052    594373.99    100154.25    1811514.9          906           12           11 
 1703000    286.38009    594334.95    100154.25    1811660.8          906           12           11 
 1704000    287.26919    594268.45    100154.25    1811722.7          907           12           11 
 1705000    294.28966    594405.71    100154.25    1811540.1          907           12           11 
 1706000    295.70483    594327.51    100154.25    1811606.5          905           12           11 
 1707000    288.72951    594203.82    100154.25    1811459.8          904           12           11 
 1708000    283.58159    594130.47    100154.25    1811299.8          907           12           11 
 1709000    300.48688    594385.46    100154.25    1811784.6          908           12           11 
 1710000    296.39591    594340.33    100154.25    1811365.3          906           12           11 
 1711000    297.68025    594322.15    100154.25    1811697.6          906           12           11 
 1712000    293.46153    594286.76    100154.25    1811477.3          905           12           11 
 1713000    288.82185    594067.48    100154.25    1811363.9          907           12           11 
 1714000    295.08671    594236.79    100154.25    1811859.3          906           12           11 
 1715000    287.19126    594065.71    100154.25    1811395.3          906           12           11 
 1716000    290.85473     594176.4    100154.25    1811387.7          904           12           11 
 1717000    291.09098     594288.2    100154.25      1811572          903           12           11 
 1718000     294.7179    594255.86    100154.25    1811815.4          905           12           11 
 1719000    290.73692    594295.85    100154.25    1811403.8          903           12           11 
 1720000    289.44256    594318.44    100154.25    1811441.9          903           12           11 
 1721000      285.634    594257.73    100154.25    1811493.1          904           12           11 
 1722000     286.3801    594272.95    100154.25    1811622.7          906           12           11 
 1723000    290.40409    594470.07    100154.25    1811365.6          905           12           11 
 1724000    294.11558    594401.29    100154.25      1811375          906           12           11 
 1725000    291.03193     594264.4    100154.25    1811843.3          907           12           11 
 1726000    290.08013       594318    100154.25    1811455.1          906           12           11 
 1727000    296.02003    594362.93    100154.25    1811372.8          907           12           11 
 1728000    290.09663    594394.02    100154.25    1811615.1          905           12           11 
 1729000     294.8214    594300.31    100154.25    1811611.4          906           12           11 
 1730000    294.33173    594281.91    100154.25    1811650.4          908           12           11 
 1731000    298.66733    594329.61    100154.25    1811618.9          910           12           11 
 1732000     294.1605    594285.52    100154.25    1811885.4          909           12           11 
 1733000    288.63545    594181.24    100154.25    1811413.5          906           12           11 
 1734000    292.04854       594324    100154.25    1811605.9          902           12           11 
 1735000     292.4728    594215.68    100154.25    1811257.5          904           12           11 
 1736000    292.22763    594270.49    100154.25    1811858.5          903           12           11 
 1737000    292.31173     594262.1    100154.25    1811618.5          903           12           11 
 1738000    290.84582    594315.59    100154.25    1811879.7          902           12           11 
 1739000    293.66285     594295.6    100154.25    1811656.8          903           12           11 
 1740000    291.66871    594270.21    100154.25      1811395          902           12           11 
 1741000    294.48603    594333.68    100154.25    1811526.4          902           12           11 
 1742000    293.97297    594341.23    100154.25    1811602.2          901           12           11 
 1743000    297.17077    594319.36    100154.25    1811694.9          900           12           11 
 1744000    286.94469    594235.86    100154.25    1811505.6          901           12           11 
 1745000    292.71793    594224.59    100154.25    1811420.5          900           12           11 
 1746000    296.74852     594304.8    100154.25    1811538.2          898           12           11 
 1747000    294.98353    594394.22    100154.25    1811931.6          899           12           11 
 1748000    297.20265    594336.84    100154.25    1811516.7          896           12           11 
 1749000    289.03773    594255.44    100154.25    1811593.8          899           12           11 
 1750000    294.36147    594238.31    100154.25    1811574.3          898           12           11 
 1751000    300.49716    594402.95    100154.25    1811444.5          898           12           11 
 1752000    288.54752    594211.83    100154.25    1811641.5          899           12           11 
 1753000    291.37982    594285.12    100154.25      1812045          898           12           11 
 1754000     294.3371    594317.16    100154.25      1811708          898           12           11 
 1755000    297.54597    594231.32    100154.25    1811836.9          896           12           11 
 1756000    293.71164    594296.63    100154.25    1811749.5          897           12           11 
 1757000    295.74438    594262.61    100154.25    1811807.4          897           12           11 
 1758000    295.73686    594456.91    100154.25    1811405.9          895           12           11 
 1759000     293.3352    594398.73    100154.25    1811491.4          894           12           11 
 1760000    291.63541    594234.04    100154.25      1811559          894           12           11 
 1761000    293.54536    594389.02    100154.25    1811623.6          896           12           11 
 1762000    294.68834    594485.85    100154.25    1811929.3          894           12           11 
 1763000    289.74646    594297.81    100154.25    1811777.3          892           12           11 
 1764000    291.68901    594223.85    100154.25    1811835.5          893           12           11 
 1765000    287.26041    594195.75    100154.25    1811323.9          891           12           11 
 1766000    299.25384    594427.33    100154.25    1811594.3          891           12           11 
 1767000    288.30512    594234.86    100154.25    1811641.6          891           12           11 
 1768000    296.30246    594357.85    100154.25      1811627          892           12           11 
 1769000    292.22154    594258.93    100154.25      1811802          889           12           11 
 1770000    298.30124    594377.14    100154.25    1811466.2          891           12           11 
 1771000    289.24201    594218.05    100154.25    1811519.6          890           12           11 
 1772000    292.76992    594162.18    100154.25      1811560          891           12           11 
 1773000    293.69383    594268.27    100154.25    1811480.5          889           12           11 
 1774000    291.52537    594191.54    100154.25    1811636.3          887           12           11 
 1775000    287.71204    594283.79    100154.25    1811505.2          887           12           11 
 1776000    292.35953    594355.43    100154.25      1811689          887           12           11 
 1777000    293.89925    594440.37    100154.25    1811661.5          885           12           11 
 1778000    296.61037    594314.89    100154.25    1811407.7          885           12           11 
 1779000    291.92164    594275.64    100154.25    1811550.6          884           12           11 
 1780000    292.31268    594240.36    100154.25    1811890.8          883           12           11 
 1781000     290.3113    594292.78    100154.25    1811700.8          886           12           11 
 1782000    290.40103    594303.32    100154.25    1811787.3          884           12           11 
 1783000    290.93197     594282.7    100154.25    1811765.8          882           12           11 
 1784000    290.85938    594336.94    100154.25    1811627.8          880           12           11 
 1785000    296.94804    594408.23    100154.25    1811363.3          881           12           11 
 1786000    286.46482    594209.39    100154.25    1811375.4          881           12           11 
 1787000    288.36258    594173.66    100154.25    1811475.8          882           12           11 
 1788000    292.70285    594261.67    100154.25    1811733.3          883           12           11 
 1789000    290.61507    594280.35    100154.25    1811710.6          883           12           11 
 1790000    295.83458    594345.88    100154.25    1811942.8          882           12           11 
 1791000    293.99815    594255.05    100154.25    1811694.1          880           12           11 
 1792000    297.66636    594227.12    100154.25    1811695.7          880           12           11 
 1793000    297.42268    594393.05    100154.25      1811295          880           12           11 
 1794000    290.74911     594255.8    100154.25    1811416.3          880           12           11 
 1795000    290.72071    594364.54    100154.25      1811670          880           12           11 
 1796000    296.88067    594448.35    100154.25    1811405.2          878           12           11 
 1797000    291.58373    594342.32    100154.25    1811237.6          878           12           11 
 1798000    300.24835    594480.82    100154.25    1811203.6          878           12           11 
 1799000    287.26095    594293.16    100154.25    1811715.1          880           12           11 
 1800000    290.07625    594225.13    100154.25    1811585.4          880           12           11 
 1801000    291.64828    594391.67    100154.25    1811693.4          881           12           11 
 1801118    289.89378    594408.39    100154.25    1811524.1          881           12           11 
Loop time of 14884.4 on 1728 procs for 1800000 steps with 6345 atoms

Performance: 5.224 ns/day, 4.594 hours/ns, 120.932 timesteps/s
100.0% CPU use with 1728 MPI tasks x no OpenMP threads

MPI task timing breakdown:
Section |  min time  |  avg time  |  max time  |%varavg| %total
---------------------------------------------------------------
Pair    | 2.3627     | 175.12     | 504.74     | 959.0 |  1.18
Bond    | 0.22008    | 0.35237    | 1.0212     |  12.4 |  0.00
Kspace  | 6590.8     | 7019.5     | 7401.6     | 202.7 | 47.16
Neigh   | 2515.8     | 2527.5     | 2539.1     |  11.1 | 16.98
Comm    | 526.09     | 1647.7     | 2414.6     |1454.7 | 11.07
Output  | 50.473     | 50.483     | 50.632     |   0.1 |  0.34
Modify  | 2569       | 3259.5     | 4325.7     | 999.5 | 21.90
Other   |            | 204.2      |            |       |  1.37

Nlocal:    3.67188 ave 11 max 0 min
Histogram: 547 57 114 207 262 280 133 78 37 13
Nghost:    2596.33 ave 3807 max 909 min
Histogram: 288 120 96 72 144 72 125 91 149 571
Neighs:    2215.68 ave 7212 max 0 min
Histogram: 577 128 123 217 251 222 121 51 32 6
FullNghs:  4431.37 ave 14926 max 0 min
Histogram: 547 81 201 257 269 177 123 46 22 5

Total # of neighbors = 7657406
Ave neighs/atom = 1206.84
Ave special neighs/atom = 1.61797
Neighbor list builds = 52005
Dangerous builds = 0

Total wall time: 4:08:16
