LAMMPS data file via write_data, version 29 Oct 2020, timestep = 0

4992 atoms
3 atom types
5060 bonds
2 bond types
6208 angles
3 angle types
8880 dihedrals
3 dihedral types

-0.037475 27.017125 xlo xhi
0.202136 59.842036 ylo yhi
14.043013686351657 151.2821083136509 zlo zhi

Masses

1 12.011
2 15.035
3 14.027


Atoms # full

1 1 1 0.0 0.0 1.419997 15.454204244045512 0 0 0
2 1 1 0.0 1.229753 3.5499920000000014 15.454204244045512 0 0 0
3 1 1 0.0 0.0 2.839994000000001 15.454204244045512 0 0 0
4 1 1 0.0 1.229753 0.709998 15.454204244045512 0 0 0
5 1 1 0.0 2.459507 1.419997 15.454204244045512 0 0 0
6 1 1 0.0 3.68926 3.5499920000000014 15.454204244045512 0 0 0
7 1 1 0.0 2.459507 2.839994000000001 15.454204244045512 0 0 0
8 1 1 0.0 3.68926 0.709998 15.454204244045512 0 0 0
9 1 1 0.0 4.919013 1.419997 15.454204244045512 0 0 0
10 1 1 0.0 6.148767 3.5499920000000014 15.454204244045512 0 0 0
11 1 1 0.0 4.919013 2.839994000000001 15.454204244045512 0 0 0
12 1 1 0.0 6.148767 0.709998 15.454204244045512 0 0 0
13 1 1 0.0 7.37852 1.419997 15.454204244045512 0 0 0
14 1 1 0.0 8.608273 3.5499920000000014 15.454204244045512 0 0 0
15 1 1 0.0 7.37852 2.839994000000001 15.454204244045512 0 0 0
16 1 1 0.0 8.608273 0.709998 15.454204244045512 0 0 0
45 1 1 0.0 0.0 5.679988 15.454204244045512 0 0 0
46 1 1 0.0 1.229753 7.809983000000001 15.454204244045512 0 0 0
47 1 1 0.0 0.0 7.0999850000000055 15.454204244045512 0 0 0
48 1 1 0.0 1.229753 4.969989 15.454204244045512 0 0 0
49 1 1 0.0 2.459507 5.679988 15.454204244045512 0 0 0
50 1 1 0.0 3.68926 7.809983000000001 15.454204244045512 0 0 0
51 1 1 0.0 2.459507 7.0999850000000055 15.454204244045512 0 0 0
52 1 1 0.0 3.68926 4.969989 15.454204244045512 0 0 0
53 1 1 0.0 4.919013 5.679988 15.454204244045512 0 0 0
54 1 1 0.0 6.148767 7.809983000000001 15.454204244045512 0 0 0
55 1 1 0.0 4.919013 7.0999850000000055 15.454204244045512 0 0 0
56 1 1 0.0 6.148767 4.969989 15.454204244045512 0 0 0
57 1 1 0.0 7.37852 5.679988 15.454204244045512 0 0 0
58 1 1 0.0 8.608273 7.809983000000001 15.454204244045512 0 0 0
59 1 1 0.0 7.37852 7.0999850000000055 15.454204244045512 0 0 0
60 1 1 0.0 8.608273 4.969989 15.454204244045512 0 0 0
89 1 1 0.0 0.0 9.939979000000012 15.454204244045512 0 0 0
92 1 1 0.0 1.229753 9.229980000000012 15.454204244045512 0 0 0
93 1 1 0.0 2.459507 9.939979000000012 15.454204244045512 0 0 0
96 1 1 0.0 3.68926 9.229980000000012 15.454204244045512 0 0 0
97 1 1 0.0 4.919013 9.939979000000012 15.454204244045512 0 0 0
100 1 1 0.0 6.148767 9.229980000000012 15.454204244045512 0 0 0
101 1 1 0.0 7.37852 9.939979000000012 15.454204244045512 0 0 0
104 1 1 0.0 8.608273 9.229980000000012 15.454204244045512 0 0 0
4580 420 3 0.0 5.77578971694712 4.169876256465786 19.275966343902518 0 0 0
4579 420 3 0.0 4.697346618457905 4.889409032093233 20.095764950729333 0 0 0
4577 420 2 0.0 3.0739041816142993 3.4701878701021096 18.977990789113115 0 0 0
4578 420 3 0.0 3.3146605813330625 4.937541815031726 19.33193309323663 0 0 0
4582 420 3 0.0 7.319979669349214 4.72354672317962 21.07746885272546 0 0 0
4583 420 3 0.0 8.34057751550518 5.648109779127251 20.37467532473987 0 0 0
4581 420 3 0.0 6.744714027271315 3.5591618532041913 20.27231034960556 0 0 0
4810 449 3 0.0 0.9929634178833927 7.957970906568802 20.126915517761354 0 0 0
4811 449 3 0.0 2.345465747402246 8.432325350515757 19.45205755345511 0 0 0
4812 449 3 0.0 1.9777100720614638 9.933387895308858 19.475350709094023 0 0 0
17 1 1 0.0 9.838026 1.419997 15.454204244045512 0 0 0
18 1 1 0.0 11.06778 3.5499920000000014 15.454204244045512 0 0 0
19 1 1 0.0 9.838026 2.839994000000001 15.454204244045512 0 0 0
20 1 1 0.0 11.06778 0.709998 15.454204244045512 0 0 0
21 1 1 0.0 12.297533 1.419997 15.454204244045512 0 0 0
22 1 1 0.0 13.527287 3.5499920000000014 15.454204244045512 0 0 0
23 1 1 0.0 12.297533 2.839994000000001 15.454204244045512 0 0 0
24 1 1 0.0 13.527287 0.709998 15.454204244045512 0 0 0
25 1 1 0.0 14.757039000000002 1.419997 15.454204244045512 0 0 0
26 1 1 0.0 15.986792999999999 3.5499920000000014 15.454204244045512 0 0 0
27 1 1 0.0 14.757039000000002 2.839994000000001 15.454204244045512 0 0 0
28 1 1 0.0 15.986792999999999 0.709998 15.454204244045512 0 0 0
29 1 1 0.0 17.216545 1.419997 15.454204244045512 0 0 0
31 1 1 0.0 17.216545 2.839994000000001 15.454204244045512 0 0 0
61 1 1 0.0 9.838026 5.679988 15.454204244045512 0 0 0
62 1 1 0.0 11.06778 7.809983000000001 15.454204244045512 0 0 0
63 1 1 0.0 9.838026 7.0999850000000055 15.454204244045512 0 0 0
64 1 1 0.0 11.06778 4.969989 15.454204244045512 0 0 0
65 1 1 0.0 12.297533 5.679988 15.454204244045512 0 0 0
66 1 1 0.0 13.527287 7.809983000000001 15.454204244045512 0 0 0
67 1 1 0.0 12.297533 7.0999850000000055 15.454204244045512 0 0 0
68 1 1 0.0 13.527287 4.969989 15.454204244045512 0 0 0
69 1 1 0.0 14.757039000000002 5.679988 15.454204244045512 0 0 0
70 1 1 0.0 15.986792999999999 7.809983000000001 15.454204244045512 0 0 0
71 1 1 0.0 14.757039000000002 7.0999850000000055 15.454204244045512 0 0 0
72 1 1 0.0 15.986792999999999 4.969989 15.454204244045512 0 0 0
73 1 1 0.0 17.216545 5.679988 15.454204244045512 0 0 0
75 1 1 0.0 17.216545 7.0999850000000055 15.454204244045512 0 0 0
105 1 1 0.0 9.838026 9.939979000000012 15.454204244045512 0 0 0
108 1 1 0.0 11.06778 9.229980000000012 15.454204244045512 0 0 0
109 1 1 0.0 12.297533 9.939979000000012 15.454204244045512 0 0 0
112 1 1 0.0 13.527287 9.229980000000012 15.454204244045512 0 0 0
113 1 1 0.0 14.757039000000002 9.939979000000012 15.454204244045512 0 0 0
116 1 1 0.0 15.986792999999999 9.229980000000012 15.454204244045512 0 0 0
117 1 1 0.0 17.216545 9.939979000000012 15.454204244045512 0 0 0
4584 420 2 0.0 9.544282214530455 4.959884541038201 19.724962267703468 0 0 0
1600 47 2 0.0 17.13452153075317 0.63077236984304 19.60516260513404 0 1 0
1289 9 2 0.0 26.993672577264025 1.593568328843829 19.069910107908186 -1 1 0
4809 449 2 0.0 26.92299128003093 8.07546831463985 18.99320149576904 -1 0 0
30 1 1 0.0 18.446299 3.5499920000000014 15.454204244045512 0 0 0
32 1 1 0.0 18.446299 0.709998 15.454204244045512 0 0 0
33 1 1 0.0 19.676052000000002 1.419997 15.454204244045512 0 0 0
34 1 1 0.0 20.905806 3.5499920000000014 15.454204244045512 0 0 0
35 1 1 0.0 19.676052000000002 2.839994000000001 15.454204244045512 0 0 0
36 1 1 0.0 20.905806 0.709998 15.454204244045512 0 0 0
37 1 1 0.0 22.135559 1.419997 15.454204244045512 0 0 0
38 1 1 0.0 23.365313000000004 3.5499920000000014 15.454204244045512 0 0 0
39 1 1 0.0 22.135559 2.839994000000001 15.454204244045512 0 0 0
40 1 1 0.0 23.365313000000004 0.709998 15.454204244045512 0 0 0
41 1 1 0.0 24.595066 1.419997 15.454204244045512 0 0 0
42 1 1 0.0 25.82482 3.5499920000000014 15.454204244045512 0 0 0
43 1 1 0.0 24.595066 2.839994000000001 15.454204244045512 0 0 0
44 1 1 0.0 25.82482 0.709998 15.454204244045512 0 0 0
74 1 1 0.0 18.446299 7.809983000000001 15.454204244045512 0 0 0
76 1 1 0.0 18.446299 4.969989 15.454204244045512 0 0 0
77 1 1 0.0 19.676052000000002 5.679988 15.454204244045512 0 0 0
78 1 1 0.0 20.905806 7.809983000000001 15.454204244045512 0 0 0
79 1 1 0.0 19.676052000000002 7.0999850000000055 15.454204244045512 0 0 0
80 1 1 0.0 20.905806 4.969989 15.454204244045512 0 0 0
81 1 1 0.0 22.135559 5.679988 15.454204244045512 0 0 0
82 1 1 0.0 23.365313000000004 7.809983000000001 15.454204244045512 0 0 0
83 1 1 0.0 22.135559 7.0999850000000055 15.454204244045512 0 0 0
84 1 1 0.0 23.365313000000004 4.969989 15.454204244045512 0 0 0
85 1 1 0.0 24.595066 5.679988 15.454204244045512 0 0 0
86 1 1 0.0 25.82482 7.809983000000001 15.454204244045512 0 0 0
87 1 1 0.0 24.595066 7.0999850000000055 15.454204244045512 0 0 0
88 1 1 0.0 25.82482 4.969989 15.454204244045512 0 0 0
120 1 1 0.0 18.446299 9.229980000000012 15.454204244045512 0 0 0
121 1 1 0.0 19.676052000000002 9.939979000000012 15.454204244045512 0 0 0
124 1 1 0.0 20.905806 9.229980000000012 15.454204244045512 0 0 0
125 1 1 0.0 22.135559 9.939979000000012 15.454204244045512 0 0 0
128 1 1 0.0 23.365313000000004 9.229980000000012 15.454204244045512 0 0 0
129 1 1 0.0 24.595066 9.939979000000012 15.454204244045512 0 0 0
132 1 1 0.0 25.82482 9.229980000000012 15.454204244045512 0 0 0
4823 450 3 0.0 21.21818079924006 3.203500564830293 22.189096932196193 0 0 0
4824 450 2 0.0 19.981816438989775 4.106707406305164 22.354232277300675 0 0 0
1291 9 3 0.0 24.64976571314209 0.7530487454968572 19.497909767878053 -1 1 0
1290 9 3 0.0 26.172539747272854 0.8112977652939154 20.00003034496363 -1 1 0
90 1 1 0.0 1.229753 12.069974 15.454204244045512 0 0 0
91 1 1 0.0 0.0 11.359976 15.454204244045512 0 0 0
94 1 1 0.0 3.68926 12.069974 15.454204244045512 0 0 0
95 1 1 0.0 2.459507 11.359976 15.454204244045512 0 0 0
98 1 1 0.0 6.148767 12.069974 15.454204244045512 0 0 0
99 1 1 0.0 4.919013 11.359976 15.454204244045512 0 0 0
102 1 1 0.0 8.608273 12.069974 15.454204244045512 0 0 0
103 1 1 0.0 7.37852 11.359976 15.454204244045512 0 0 0
133 1 1 0.0 0.0 14.199969000000014 15.454204244045512 0 0 0
134 1 1 0.0 1.229753 16.329966000000002 15.454204244045512 0 0 0
135 1 1 0.0 0.0 15.619967000000003 15.454204244045512 0 0 0
136 1 1 0.0 1.229753 13.489971000000008 15.454204244045512 0 0 0
137 1 1 0.0 2.459507 14.199969000000014 15.454204244045512 0 0 0
138 1 1 0.0 3.68926 16.329966000000002 15.454204244045512 0 0 0
139 1 1 0.0 2.459507 15.619967000000003 15.454204244045512 0 0 0
140 1 1 0.0 3.68926 13.489971000000008 15.454204244045512 0 0 0
141 1 1 0.0 4.919013 14.199969000000014 15.454204244045512 0 0 0
142 1 1 0.0 6.148767 16.329966000000002 15.454204244045512 0 0 0
143 1 1 0.0 4.919013 15.619967000000003 15.454204244045512 0 0 0
144 1 1 0.0 6.148767 13.489971000000008 15.454204244045512 0 0 0
145 1 1 0.0 7.37852 14.199969000000014 15.454204244045512 0 0 0
146 1 1 0.0 8.608273 16.329966000000002 15.454204244045512 0 0 0
147 1 1 0.0 7.37852 15.619967000000003 15.454204244045512 0 0 0
148 1 1 0.0 8.608273 13.489971000000008 15.454204244045512 0 0 0
177 1 1 0.0 0.0 18.459961 15.454204244045512 0 0 0
179 1 1 0.0 0.0 19.879957000000005 15.454204244045512 0 0 0
180 1 1 0.0 1.229753 17.749962000000014 15.454204244045512 0 0 0
181 1 1 0.0 2.459507 18.459961 15.454204244045512 0 0 0
183 1 1 0.0 2.459507 19.879957000000005 15.454204244045512 0 0 0
184 1 1 0.0 3.68926 17.749962000000014 15.454204244045512 0 0 0
185 1 1 0.0 4.919013 18.459961 15.454204244045512 0 0 0
187 1 1 0.0 4.919013 19.879957000000005 15.454204244045512 0 0 0
188 1 1 0.0 6.148767 17.749962000000014 15.454204244045512 0 0 0
189 1 1 0.0 7.37852 18.459961 15.454204244045512 0 0 0
191 1 1 0.0 7.37852 19.879957000000005 15.454204244045512 0 0 0
192 1 1 0.0 8.608273 17.749962000000014 15.454204244045512 0 0 0
4073 357 2 0.0 7.373706534114036 15.35278006531266 20.216875801591932 0 0 0
4074 357 3 0.0 7.0507842295293655 16.592722049077747 19.39120708114463 0 0 0
4075 357 3 0.0 5.6978082150007765 17.111800777717548 19.72998689552839 0 0 0
4076 357 3 0.0 5.78361832975157 18.581893242186823 19.394379818752913 0 0 0
4816 449 2 0.0 3.426551189592235 13.839335480570993 21.32631346003387 0 0 0
4815 449 3 0.0 3.4580710667374266 13.299257890728867 19.966717483601435 0 0 0
4814 449 3 0.0 2.3958151276820834 12.335660138734932 19.7876804206459 0 0 0
4813 449 3 0.0 3.0659995301423946 10.98875482839437 19.542283623101472 0 0 0
4077 357 3 0.0 4.3895993555664905 19.20311815595457 19.306929181090982 0 0 0
3327 263 3 0.0 12.144160262674372 13.55194206771456 18.756855764136333 0 0 0
3326 263 3 0.0 13.09393466429772 12.987034353263777 19.814258431921893 0 0 0
3328 263 2 0.0 10.735224077797135 13.24859057547145 19.172804001918756 0 0 0
3325 263 3 0.0 14.495575243517711 13.37966701711822 19.34202752938828 0 0 0
3324 263 3 0.0 15.41076654769979 12.159502358438589 19.40576270119319 0 0 0
3323 263 3 0.0 16.901623644114625 12.336669747532481 18.934608931433964 0 0 0
3322 263 3 0.0 17.924516494753025 11.257488865991881 19.335881972389586 0 0 0
106 1 1 0.0 11.06778 12.069974 15.454204244045512 0 0 0
107 1 1 0.0 9.838026 11.359976 15.454204244045512 0 0 0
110 1 1 0.0 13.527287 12.069974 15.454204244045512 0 0 0
111 1 1 0.0 12.297533 11.359976 15.454204244045512 0 0 0
114 1 1 0.0 15.986792999999999 12.069974 15.454204244045512 0 0 0
115 1 1 0.0 14.757039000000002 11.359976 15.454204244045512 0 0 0
119 1 1 0.0 17.216545 11.359976 15.454204244045512 0 0 0
149 1 1 0.0 9.838026 14.199969000000014 15.454204244045512 0 0 0
150 1 1 0.0 11.06778 16.329966000000002 15.454204244045512 0 0 0
151 1 1 0.0 9.838026 15.619967000000003 15.454204244045512 0 0 0
152 1 1 0.0 11.06778 13.489971000000008 15.454204244045512 0 0 0
153 1 1 0.0 12.297533 14.199969000000014 15.454204244045512 0 0 0
154 1 1 0.0 13.527287 16.329966000000002 15.454204244045512 0 0 0
155 1 1 0.0 12.297533 15.619967000000003 15.454204244045512 0 0 0
156 1 1 0.0 13.527287 13.489971000000008 15.454204244045512 0 0 0
157 1 1 0.0 14.757039000000002 14.199969000000014 15.454204244045512 0 0 0
158 1 1 0.0 15.986792999999999 16.329966000000002 15.454204244045512 0 0 0
159 1 1 0.0 14.757039000000002 15.619967000000003 15.454204244045512 0 0 0
160 1 1 0.0 15.986792999999999 13.489971000000008 15.454204244045512 0 0 0
161 1 1 0.0 17.216545 14.199969000000014 15.454204244045512 0 0 0
163 1 1 0.0 17.216545 15.619967000000003 15.454204244045512 0 0 0
193 1 1 0.0 9.838026 18.459961 15.454204244045512 0 0 0
195 1 1 0.0 9.838026 19.879957000000005 15.454204244045512 0 0 0
196 1 1 0.0 11.06778 17.749962000000014 15.454204244045512 0 0 0
197 1 1 0.0 12.297533 18.459961 15.454204244045512 0 0 0
199 1 1 0.0 12.297533 19.879957000000005 15.454204244045512 0 0 0
200 1 1 0.0 13.527287 17.749962000000014 15.454204244045512 0 0 0
201 1 1 0.0 14.757039000000002 18.459961 15.454204244045512 0 0 0
203 1 1 0.0 14.757039000000002 19.879957000000005 15.454204244045512 0 0 0
204 1 1 0.0 15.986792999999999 17.749962000000014 15.454204244045512 0 0 0
205 1 1 0.0 17.216545 18.459961 15.454204244045512 0 0 0
207 1 1 0.0 17.216545 19.879957000000005 15.454204244045512 0 0 0
4968 468 2 0.0 12.894307462015481 19.48938721571115 20.398077188318325 0 0 0
3321 263 2 0.0 19.410105793013585 11.50168466259886 18.973716690099568 0 0 0
2036 102 3 0.0 22.852338235846066 13.58395769424238 20.563752822084748 0 0 0
2037 102 3 0.0 23.1653582185252 14.536874802838833 21.735289137652394 0 0 0
2034 102 3 0.0 25.133118931107443 13.16609241293208 19.71123997775364 0 0 0
2033 102 2 0.0 25.311292219932714 11.689607249556927 19.294016203533868 0 0 0
2038 102 3 0.0 22.695230553722265 15.986372938718349 21.507379816061057 0 0 0
2035 102 3 0.0 23.815404138433525 13.755001847883692 19.32452525979831 0 0 0
118 1 1 0.0 18.446299 12.069974 15.454204244045512 0 0 0
122 1 1 0.0 20.905806 12.069974 15.454204244045512 0 0 0
123 1 1 0.0 19.676052000000002 11.359976 15.454204244045512 0 0 0
126 1 1 0.0 23.365313000000004 12.069974 15.454204244045512 0 0 0
127 1 1 0.0 22.135559 11.359976 15.454204244045512 0 0 0
130 1 1 0.0 25.82482 12.069974 15.454204244045512 0 0 0
131 1 1 0.0 24.595066 11.359976 15.454204244045512 0 0 0
162 1 1 0.0 18.446299 16.329966000000002 15.454204244045512 0 0 0
164 1 1 0.0 18.446299 13.489971000000008 15.454204244045512 0 0 0
165 1 1 0.0 19.676052000000002 14.199969000000014 15.454204244045512 0 0 0
166 1 1 0.0 20.905806 16.329966000000002 15.454204244045512 0 0 0
167 1 1 0.0 19.676052000000002 15.619967000000003 15.454204244045512 0 0 0
168 1 1 0.0 20.905806 13.489971000000008 15.454204244045512 0 0 0
169 1 1 0.0 22.135559 14.199969000000014 15.454204244045512 0 0 0
170 1 1 0.0 23.365313000000004 16.329966000000002 15.454204244045512 0 0 0
171 1 1 0.0 22.135559 15.619967000000003 15.454204244045512 0 0 0
172 1 1 0.0 23.365313000000004 13.489971000000008 15.454204244045512 0 0 0
173 1 1 0.0 24.595066 14.199969000000014 15.454204244045512 0 0 0
174 1 1 0.0 25.82482 16.329966000000002 15.454204244045512 0 0 0
175 1 1 0.0 24.595066 15.619967000000003 15.454204244045512 0 0 0
176 1 1 0.0 25.82482 13.489971000000008 15.454204244045512 0 0 0
208 1 1 0.0 18.446299 17.749962000000014 15.454204244045512 0 0 0
209 1 1 0.0 19.676052000000002 18.459961 15.454204244045512 0 0 0
211 1 1 0.0 19.676052000000002 19.879957000000005 15.454204244045512 0 0 0
212 1 1 0.0 20.905806 17.749962000000014 15.454204244045512 0 0 0
213 1 1 0.0 22.135559 18.459961 15.454204244045512 0 0 0
215 1 1 0.0 22.135559 19.879957000000005 15.454204244045512 0 0 0
216 1 1 0.0 23.365313000000004 17.749962000000014 15.454204244045512 0 0 0
217 1 1 0.0 24.595066 18.459961 15.454204244045512 0 0 0
219 1 1 0.0 24.595066 19.879957000000005 15.454204244045512 0 0 0
220 1 1 0.0 25.82482 17.749962000000014 15.454204244045512 0 0 0
1483 33 3 0.0 25.297758591656113 19.24279923238072 19.563325019795776 0 0 0
1482 33 3 0.0 26.58628033888999 18.83240609295985 18.963697624761316 0 0 0
1481 33 2 0.0 26.84717578391849 17.40985743992433 19.03359756787767 0 0 0
1488 33 2 0.0 20.53982969426586 19.517230730559856 19.94849102860921 0 0 0
4921 463 2 0.0 7.913644522268375 28.67638910190501 20.7435823074444 0 0 0
4961 468 2 0.0 8.434769353385871 21.261798552962997 22.120817573701736 0 0 0
4962 468 3 0.0 7.772536480527087 21.74937045255539 20.8969171931878 0 0 0
3621 300 3 0.0 1.1928426146495206 26.60899302194771 20.55252478927403 0 0 0
178 1 1 0.0 1.229753 20.589956000000026 15.454204244045512 0 0 0
182 1 1 0.0 3.68926 20.589956000000026 15.454204244045512 0 0 0
186 1 1 0.0 6.148767 20.589956000000026 15.454204244045512 0 0 0
190 1 1 0.0 8.608273 20.589956000000026 15.454204244045512 0 0 0
221 1 1 0.0 0.0 22.719952 15.454204244045512 0 0 0
222 1 1 0.0 1.229753 24.84994700000002 15.454204244045512 0 0 0
223 1 1 0.0 0.0 24.139948 15.454204244045512 0 0 0
224 1 1 0.0 1.229753 22.00995300000001 15.454204244045512 0 0 0
225 1 1 0.0 2.459507 22.719952 15.454204244045512 0 0 0
226 1 1 0.0 3.68926 24.84994700000002 15.454204244045512 0 0 0
227 1 1 0.0 2.459507 24.139948 15.454204244045512 0 0 0
228 1 1 0.0 3.68926 22.00995300000001 15.454204244045512 0 0 0
229 1 1 0.0 4.919013 22.719952 15.454204244045512 0 0 0
230 1 1 0.0 6.148767 24.84994700000002 15.454204244045512 0 0 0
231 1 1 0.0 4.919013 24.139948 15.454204244045512 0 0 0
232 1 1 0.0 6.148767 22.00995300000001 15.454204244045512 0 0 0
233 1 1 0.0 7.37852 22.719952 15.454204244045512 0 0 0
234 1 1 0.0 8.608273 24.84994700000002 15.454204244045512 0 0 0
235 1 1 0.0 7.37852 24.139948 15.454204244045512 0 0 0
236 1 1 0.0 8.608273 22.00995300000001 15.454204244045512 0 0 0
265 1 1 0.0 0.0 26.979942000000012 15.454204244045512 0 0 0
266 1 1 0.0 1.229753 29.109938000000017 15.454204244045512 0 0 0
267 1 1 0.0 0.0 28.399939 15.454204244045512 0 0 0
268 1 1 0.0 1.229753 26.269943000000037 15.454204244045512 0 0 0
269 1 1 0.0 2.459507 26.979942000000012 15.454204244045512 0 0 0
270 1 1 0.0 3.68926 29.109938000000017 15.454204244045512 0 0 0
271 1 1 0.0 2.459507 28.399939 15.454204244045512 0 0 0
272 1 1 0.0 3.68926 26.269943000000037 15.454204244045512 0 0 0
273 1 1 0.0 4.919013 26.979942000000012 15.454204244045512 0 0 0
274 1 1 0.0 6.148767 29.109938000000017 15.454204244045512 0 0 0
275 1 1 0.0 4.919013 28.399939 15.454204244045512 0 0 0
276 1 1 0.0 6.148767 26.269943000000037 15.454204244045512 0 0 0
277 1 1 0.0 7.37852 26.979942000000012 15.454204244045512 0 0 0
278 1 1 0.0 8.608273 29.109938000000017 15.454204244045512 0 0 0
279 1 1 0.0 7.37852 28.399939 15.454204244045512 0 0 0
280 1 1 0.0 8.608273 26.269943000000037 15.454204244045512 0 0 0
3620 300 3 0.0 1.6948865195600251 28.07251930811902 20.720379081329533 0 0 0
3619 300 3 0.0 1.6419362317461512 29.03398869949674 19.499470855522297 0 0 0
4963 468 3 0.0 8.485433861119528 21.21629698207485 19.716700543413857 0 0 0
4922 463 3 0.0 8.826468232904276 29.64472481747279 19.88082356439404 0 0 0
4078 357 3 0.0 4.445400019205754 20.086660473552655 20.5047120338532 0 0 0
4080 357 2 0.0 2.1735901491749225 20.139435162326055 21.509218655765054 0 0 0
4079 357 3 0.0 3.2245402716422467 20.907206485067576 20.77698399919197 0 0 0
4966 468 3 0.0 11.041107490243407 20.864689480677058 19.253181154493614 0 0 0
4967 468 3 0.0 12.503223147771363 20.53799009220648 19.400187158986945 0 0 0
4965 468 3 0.0 10.643595931557028 22.32994059134824 19.31325930519578 0 0 0
4964 468 3 0.0 9.176026077693866 22.365834175056168 18.972068155083072 0 0 0
194 1 1 0.0 11.06778 20.589956000000026 15.454204244045512 0 0 0
198 1 1 0.0 13.527287 20.589956000000026 15.454204244045512 0 0 0
202 1 1 0.0 15.986792999999999 20.589956000000026 15.454204244045512 0 0 0
237 1 1 0.0 9.838026 22.719952 15.454204244045512 0 0 0
238 1 1 0.0 11.06778 24.84994700000002 15.454204244045512 0 0 0
239 1 1 0.0 9.838026 24.139948 15.454204244045512 0 0 0
240 1 1 0.0 11.06778 22.00995300000001 15.454204244045512 0 0 0
241 1 1 0.0 12.297533 22.719952 15.454204244045512 0 0 0
242 1 1 0.0 13.527287 24.84994700000002 15.454204244045512 0 0 0
243 1 1 0.0 12.297533 24.139948 15.454204244045512 0 0 0
244 1 1 0.0 13.527287 22.00995300000001 15.454204244045512 0 0 0
245 1 1 0.0 14.757039000000002 22.719952 15.454204244045512 0 0 0
246 1 1 0.0 15.986792999999999 24.84994700000002 15.454204244045512 0 0 0
247 1 1 0.0 14.757039000000002 24.139948 15.454204244045512 0 0 0
248 1 1 0.0 15.986792999999999 22.00995300000001 15.454204244045512 0 0 0
249 1 1 0.0 17.216545 22.719952 15.454204244045512 0 0 0
251 1 1 0.0 17.216545 24.139948 15.454204244045512 0 0 0
281 1 1 0.0 9.838026 26.979942000000012 15.454204244045512 0 0 0
282 1 1 0.0 11.06778 29.109938000000017 15.454204244045512 0 0 0
283 1 1 0.0 9.838026 28.399939 15.454204244045512 0 0 0
284 1 1 0.0 11.06778 26.269943000000037 15.454204244045512 0 0 0
285 1 1 0.0 12.297533 26.979942000000012 15.454204244045512 0 0 0
286 1 1 0.0 13.527287 29.109938000000017 15.454204244045512 0 0 0
287 1 1 0.0 12.297533 28.399939 15.454204244045512 0 0 0
288 1 1 0.0 13.527287 26.269943000000037 15.454204244045512 0 0 0
289 1 1 0.0 14.757039000000002 26.979942000000012 15.454204244045512 0 0 0
290 1 1 0.0 15.986792999999999 29.109938000000017 15.454204244045512 0 0 0
291 1 1 0.0 14.757039000000002 28.399939 15.454204244045512 0 0 0
292 1 1 0.0 15.986792999999999 26.269943000000037 15.454204244045512 0 0 0
293 1 1 0.0 17.216545 26.979942000000012 15.454204244045512 0 0 0
295 1 1 0.0 17.216545 28.399939 15.454204244045512 0 0 0
3145 241 2 0.0 11.397148330826653 25.899947224414962 19.936473529503818 -1 0 0
3148 241 3 0.0 14.648254747919419 27.833173362891937 19.298544364098074 -1 0 0
3146 241 3 0.0 12.2416650464315 27.163209361545015 19.837924849562555 -1 0 0
3147 241 3 0.0 13.527504120123641 26.872941099023276 18.9589957075592 -1 0 0
3149 241 3 0.0 16.112088721945895 27.423399931240425 19.194202906956843 -1 0 0
2874 207 3 0.0 16.92945247761089 23.53698683582863 21.114133275244747 0 0 0
3150 241 3 0.0 17.039816385235927 28.61165187959013 19.5589281294841 -1 0 0
2876 207 3 0.0 14.391213977521119 23.596695453171645 21.46690619093752 0 0 0
2875 207 3 0.0 15.636880725975141 24.30338752521788 20.876270687817964 0 0 0
2873 207 2 0.0 16.69789557153687 22.174935136872758 20.427064793434617 0 0 0
1487 33 3 0.0 21.646203536608375 20.272309642518128 19.30438638069566 0 0 0
1484 33 3 0.0 25.153250693304628 20.71823530778161 19.721127320437233 0 0 0
1485 33 3 0.0 23.900485390427693 21.237598576782894 19.212539831103463 0 0 0
1826 76 3 0.0 22.728373088203885 29.27233889261782 21.670543626869723 0 0 0
3151 241 3 0.0 18.455245223166166 28.167584127555603 19.73657128869345 -1 0 0
3623 300 3 0.0 25.97223572615989 25.259377444002133 20.292517034719594 -1 0 0
3622 300 3 0.0 26.679376476614753 26.582002949653425 20.615531021809552 -1 0 0
3624 300 2 0.0 26.739944368146368 23.93657669438374 20.10615018620892 -1 0 0
3152 241 2 0.0 18.5175745217329 27.05831491125886 20.751638636611393 -1 0 0
206 1 1 0.0 18.446299 20.589956000000026 15.454204244045512 0 0 0
210 1 1 0.0 20.905806 20.589956000000026 15.454204244045512 0 0 0
214 1 1 0.0 23.365313000000004 20.589956000000026 15.454204244045512 0 0 0
218 1 1 0.0 25.82482 20.589956000000026 15.454204244045512 0 0 0
250 1 1 0.0 18.446299 24.84994700000002 15.454204244045512 0 0 0
252 1 1 0.0 18.446299 22.00995300000001 15.454204244045512 0 0 0
253 1 1 0.0 19.676052000000002 22.719952 15.454204244045512 0 0 0
254 1 1 0.0 20.905806 24.84994700000002 15.454204244045512 0 0 0
255 1 1 0.0 19.676052000000002 24.139948 15.454204244045512 0 0 0
256 1 1 0.0 20.905806 22.00995300000001 15.454204244045512 0 0 0
257 1 1 0.0 22.135559 22.719952 15.454204244045512 0 0 0
258 1 1 0.0 23.365313000000004 24.84994700000002 15.454204244045512 0 0 0
259 1 1 0.0 22.135559 24.139948 15.454204244045512 0 0 0
260 1 1 0.0 23.365313000000004 22.00995300000001 15.454204244045512 0 0 0
261 1 1 0.0 24.595066 22.719952 15.454204244045512 0 0 0
262 1 1 0.0 25.82482 24.84994700000002 15.454204244045512 0 0 0
263 1 1 0.0 24.595066 24.139948 15.454204244045512 0 0 0
264 1 1 0.0 25.82482 22.00995300000001 15.454204244045512 0 0 0
294 1 1 0.0 18.446299 29.109938000000017 15.454204244045512 0 0 0
296 1 1 0.0 18.446299 26.269943000000037 15.454204244045512 0 0 0
297 1 1 0.0 19.676052000000002 26.979942000000012 15.454204244045512 0 0 0
298 1 1 0.0 20.905806 29.109938000000017 15.454204244045512 0 0 0
299 1 1 0.0 19.676052000000002 28.399939 15.454204244045512 0 0 0
300 1 1 0.0 20.905806 26.269943000000037 15.454204244045512 0 0 0
301 1 1 0.0 22.135559 26.979942000000012 15.454204244045512 0 0 0
302 1 1 0.0 23.365313000000004 29.109938000000017 15.454204244045512 0 0 0
303 1 1 0.0 22.135559 28.399939 15.454204244045512 0 0 0
304 1 1 0.0 23.365313000000004 26.269943000000037 15.454204244045512 0 0 0
305 1 1 0.0 24.595066 26.979942000000012 15.454204244045512 0 0 0
306 1 1 0.0 25.82482 29.109938000000017 15.454204244045512 0 0 0
307 1 1 0.0 24.595066 28.399939 15.454204244045512 0 0 0
308 1 1 0.0 25.82482 26.269943000000037 15.454204244045512 0 0 0
1486 33 3 0.0 22.770279552707784 20.898713174787957 20.183386804764652 0 0 0
1828 76 3 0.0 22.445966405310386 29.680924093047786 19.174728952023806 0 0 0
1825 76 2 0.0 21.947071507859153 27.935120803104507 21.813583037070202 0 0 0
1827 76 3 0.0 23.44360540494488 29.53371329931039 20.35279167587144 0 0 0
3252 254 3 0.0 5.908536394841114 3.1774905566676055 30.213122658661966 0 0 0
3253 254 3 0.0 6.631699574320819 4.094267638718829 29.170542553702855 0 0 0
1312 11 2 0.0 2.1104307721402393 2.864706120210776 23.41548288796583 0 0 0
1311 11 3 0.0 2.4379305170220036 2.3925221054974166 24.79044831127017 0 0 0
3254 254 3 0.0 7.792282351607088 3.422570363354475 28.366529323954452 0 0 0
3255 254 3 0.0 7.339875275368949 2.8038948227151645 27.065912799849308 0 0 0
3256 254 2 0.0 8.25393077217523 1.855436543558875 26.35246483270103 0 0 0
1643 53 3 0.0 2.717144650609133 8.990113540416644 28.23959046390479 0 0 0
1641 53 2 0.0 3.797297453336184 7.126222972800148 26.979521692568177 0 0 0
1644 53 3 0.0 2.5606022875722614 9.738025359784451 26.944644007806524 0 0 0
1642 53 3 0.0 3.9773244318970504 8.174114465042216 28.09540576046965 0 0 0
1309 11 3 0.0 3.467786049839645 0.8110975003643618 26.433441840906312 0 0 0
1310 11 3 0.0 3.0693130755898306 1.036240419897101 24.972127128935046 0 0 0
3902 335 3 0.0 14.800445846355347 6.453846701799613 30.644854391136832 0 0 0
3898 335 3 0.0 10.287862844413082 6.580420363228817 31.128046335484854 0 0 0
1861 80 3 0.0 10.600927092002388 9.427511034624494 23.984739950791102 0 0 0
2737 190 2 0.0 13.714324869718896 2.715518420342152 30.17143707121723 0 0 0
3831 326 3 0.0 12.758475162148388 0.9482575441269737 23.17712569418144 0 0 0
1862 80 3 0.0 10.195789654610085 7.998809658743918 23.83739352548001 0 0 0
1864 80 2 0.0 12.541019154732053 7.01595937500144 23.807672396926595 0 0 0
1863 80 3 0.0 11.18599417214073 6.992810943583162 24.46722728185959 0 0 0
3899 335 3 0.0 11.144992845098537 7.391577118494895 30.242219357136786 0 0 0
2738 190 3 0.0 12.821540310387768 1.5890956357265626 29.676192175034863 0 0 0
3900 335 3 0.0 12.388147641336422 6.632176400003948 30.114346507316647 0 0 0
3830 326 3 0.0 12.913041116527378 0.39973555702463603 24.650001815584673 0 0 0
3832 326 2 0.0 11.856657490435706 2.0728562327109623 23.39150663572782 0 0 0
2739 190 3 0.0 11.392696427271716 1.9421619938284547 29.30021859316014 0 0 0
3901 335 3 0.0 13.487171909278239 7.130078473909686 31.063334107868428 0 0 0
2740 190 3 0.0 10.50611921340024 1.7292667745198729 30.628340728386085 0 0 0
3904 335 2 0.0 17.13222833368289 5.789371544617753 31.127268679354728 0 0 0
4822 450 3 0.0 22.234614401232704 3.549618066570442 23.299012240754212 0 0 0
4817 450 2 0.0 25.956937197510197 4.041970381114476 27.346580604077403 0 0 0
4818 450 3 0.0 25.367623184758113 2.9226225845785523 26.46450060431969 0 0 0
4819 450 3 0.0 24.462521541291522 3.4996928801998 25.395350248585437 0 0 0
4820 450 3 0.0 24.196068616976856 2.4724217115521174 24.29021786742178 0 0 0
4821 450 3 0.0 23.61834479993961 3.119852071688113 23.04284983931467 0 0 0
4891 459 3 0.0 24.192107159422754 10.135464946358477 29.688310717503892 0 0 0
4889 459 2 0.0 21.827525058303674 9.455644653383363 29.794537685844343 0 0 0
1648 53 2 0.0 25.59395652953027 9.726555088010352 24.891762889459002 -1 0 0
1997 97 3 0.0 24.339612210705326 1.2557286570280572 31.01989384370084 -1 0 0
1996 97 3 0.0 22.927602163657493 1.5631458310611204 30.534932828198453 -1 0 0
1999 97 3 0.0 24.417473999358347 3.7925679092643705 30.995773691525365 -1 0 0
1995 97 3 0.0 22.20639125340817 0.36942907641813916 29.91574100202782 -1 0 0
1857 80 2 0.0 7.424481107371621 12.816017384857725 23.606200392583986 0 0 0
1858 80 3 0.0 8.771519518083721 12.60035807756711 22.905470974292925 0 0 0
1646 53 3 0.0 1.153051341416219 10.375383489137398 25.21445072540321 0 0 0
3097 235 2 0.0 5.273791305462188 18.37122576509009 24.765708997401184 1 0 0
3098 235 3 0.0 6.758505455621842 18.224147079377484 24.98970009378545 1 0 0
3099 235 3 0.0 7.207969087198924 16.866830953409337 25.543881882230522 1 0 0
1645 53 3 0.0 1.2551810114652742 10.39090048403039 26.71137392459199 0 0 0