LAMMPS data file via write_data, version 29 Oct 2020, timestep = 3000000

4992 atoms
3 atom types
5060 bonds
2 bond types
6208 angles
3 angle types
8880 dihedrals
3 dihedral types

-0.037475 27.017125 xlo xhi
0.202136 59.842036 ylo yhi
14.043013686351657 151.2821083136509 zlo zhi

Masses

1 12.011
2 15.035
3 14.027

Pair Coeffs # lj/cut/omp

1 0 0
2 0.175 3.905
3 0.118 3.905

Bond Coeffs # harmonic/omp

1 0 1.4
2 260 1.526

Angle Coeffs # harmonic/omp

1 0 120
2 63 112
3 63 112

Dihedral Coeffs # opls/omp

1 0 0 0 0
2 1.411 -0.271 3.145 0
3 1.411 -0.271 3.145 0

Atoms # full

1 1 1 0.0 0.0 1.419997 15.454204244045512 0 0 0
2 1 1 0.0 1.229753 3.5499920000000014 15.454204244045512 0 0 0
3 1 1 0.0 0.0 2.839994000000001 15.454204244045512 0 0 0
4 1 1 0.0 1.229753 0.709998 15.454204244045512 0 0 0
5 1 1 0.0 2.459507 1.419997 15.454204244045512 0 0 0
6 1 1 0.0 3.68926 3.5499920000000014 15.454204244045512 0 0 0
7 1 1 0.0 2.459507 2.839994000000001 15.454204244045512 0 0 0
8 1 1 0.0 3.68926 0.709998 15.454204244045512 0 0 0
9 1 1 0.0 4.919013 1.419997 15.454204244045512 0 0 0
10 1 1 0.0 6.148767 3.5499920000000014 15.454204244045512 0 0 0
11 1 1 0.0 4.919013 2.839994000000001 15.454204244045512 0 0 0
12 1 1 0.0 6.148767 0.709998 15.454204244045512 0 0 0
13 1 1 0.0 7.37852 1.419997 15.454204244045512 0 0 0
14 1 1 0.0 8.608273 3.5499920000000014 15.454204244045512 0 0 0
15 1 1 0.0 7.37852 2.839994000000001 15.454204244045512 0 0 0
16 1 1 0.0 8.608273 0.709998 15.454204244045512 0 0 0
45 1 1 0.0 0.0 5.679988 15.454204244045512 0 0 0
46 1 1 0.0 1.229753 7.809983000000001 15.454204244045512 0 0 0
47 1 1 0.0 0.0 7.0999850000000055 15.454204244045512 0 0 0
48 1 1 0.0 1.229753 4.969989 15.454204244045512 0 0 0
49 1 1 0.0 2.459507 5.679988 15.454204244045512 0 0 0
50 1 1 0.0 3.68926 7.809983000000001 15.454204244045512 0 0 0
51 1 1 0.0 2.459507 7.0999850000000055 15.454204244045512 0 0 0
52 1 1 0.0 3.68926 4.969989 15.454204244045512 0 0 0
53 1 1 0.0 4.919013 5.679988 15.454204244045512 0 0 0
54 1 1 0.0 6.148767 7.809983000000001 15.454204244045512 0 0 0
55 1 1 0.0 4.919013 7.0999850000000055 15.454204244045512 0 0 0
56 1 1 0.0 6.148767 4.969989 15.454204244045512 0 0 0
57 1 1 0.0 7.37852 5.679988 15.454204244045512 0 0 0
58 1 1 0.0 8.608273 7.809983000000001 15.454204244045512 0 0 0
59 1 1 0.0 7.37852 7.0999850000000055 15.454204244045512 0 0 0
60 1 1 0.0 8.608273 4.969989 15.454204244045512 0 0 0
2374 144 3 0.0 4.32209233716429 7.0067299911543826 20.215090180057565 1 -2 0
2375 144 3 0.0 5.089179449200422 8.364132673205486 19.762237300564475 1 -2 0
3001 223 2 0.0 26.824893856653713 8.27950095063142 19.85813758256508 4 -6 0
2372 144 3 0.0 2.4503425071928415 5.211796494456122 19.96889421979368 1 -2 0
2373 144 3 0.0 3.2743073627365096 6.269153011959652 19.23985291050207 1 -2 0
2371 144 3 0.0 1.3847500961147563 4.564662542451399 19.10445099340583 1 -2 0
2370 144 3 0.0 0.5210515800843676 3.6769899809514 19.96121175019146 1 -2 0
2369 144 2 0.0 0.13674188390948633 2.3448848225425705 19.25224087948556 1 -2 0
4298 385 3 0.0 7.156824217866233 1.8462886871976336 19.150529451286182 -1 -5 0
4297 385 2 0.0 5.8063930693210715 2.2238606116715425 19.73322633107172 -1 -5 0
4431 401 3 0.0 10.806648564508965 5.5022470755800805 19.415537919784306 2 -4 0
4430 401 3 0.0 11.310792965249986 6.773476918415989 20.120594644188913 2 -4 0
4432 401 2 0.0 11.96849887517982 4.54750481494613 19.265370123073666 2 -4 0
17 1 1 0.0 9.838026 1.419997 15.454204244045512 0 0 0
18 1 1 0.0 11.06778 3.5499920000000014 15.454204244045512 0 0 0
19 1 1 0.0 9.838026 2.839994000000001 15.454204244045512 0 0 0
20 1 1 0.0 11.06778 0.709998 15.454204244045512 0 0 0
21 1 1 0.0 12.297533 1.419997 15.454204244045512 0 0 0
22 1 1 0.0 13.527287 3.5499920000000014 15.454204244045512 0 0 0
23 1 1 0.0 12.297533 2.839994000000001 15.454204244045512 0 0 0
24 1 1 0.0 13.527287 0.709998 15.454204244045512 0 0 0
25 1 1 0.0 14.757039000000002 1.419997 15.454204244045512 0 0 0
26 1 1 0.0 15.986792999999999 3.5499920000000014 15.454204244045512 0 0 0
27 1 1 0.0 14.757039000000002 2.839994000000001 15.454204244045512 0 0 0
28 1 1 0.0 15.986792999999999 0.709998 15.454204244045512 0 0 0
29 1 1 0.0 17.216545 1.419997 15.454204244045512 0 0 0
31 1 1 0.0 17.216545 2.839994000000001 15.454204244045512 0 0 0
61 1 1 0.0 9.838026 5.679988 15.454204244045512 0 0 0
62 1 1 0.0 11.06778 7.809983000000001 15.454204244045512 0 0 0
63 1 1 0.0 9.838026 7.0999850000000055 15.454204244045512 0 0 0
64 1 1 0.0 11.06778 4.969989 15.454204244045512 0 0 0
65 1 1 0.0 12.297533 5.679988 15.454204244045512 0 0 0
66 1 1 0.0 13.527287 7.809983000000001 15.454204244045512 0 0 0
67 1 1 0.0 12.297533 7.0999850000000055 15.454204244045512 0 0 0
68 1 1 0.0 13.527287 4.969989 15.454204244045512 0 0 0
69 1 1 0.0 14.757039000000002 5.679988 15.454204244045512 0 0 0
70 1 1 0.0 15.986792999999999 7.809983000000001 15.454204244045512 0 0 0
71 1 1 0.0 14.757039000000002 7.0999850000000055 15.454204244045512 0 0 0
72 1 1 0.0 15.986792999999999 4.969989 15.454204244045512 0 0 0
73 1 1 0.0 17.216545 5.679988 15.454204244045512 0 0 0
75 1 1 0.0 17.216545 7.0999850000000055 15.454204244045512 0 0 0
1694 59 3 0.0 14.819735364119065 6.03321652722983 22.457348229840395 1 -2 0
1695 59 3 0.0 16.10043196047757 5.427653600056104 21.846705052234586 1 -2 0
1696 59 2 0.0 16.699109223145012 6.504238842015339 21.0159817802387 1 -2 0
4302 385 3 0.0 11.539351068588491 0.3706201990178318 19.6727156616481 -1 -5 0
4303 385 3 0.0 12.429605525345538 1.2851625467794332 20.396214402433785 -1 -5 0
4304 385 2 0.0 13.865064530794415 1.0960398901956947 19.812518733763618 -1 -5 0
1693 59 3 0.0 14.193439565123018 5.07511742018729 23.53279503427379 1 -2 0
4301 385 3 0.0 10.120052886075966 0.6666177540295303 20.087629104210123 -1 -5 0
3002 223 3 0.0 25.722211665761698 7.156690398910447 19.94779509034914 4 -6 0
3003 223 3 0.0 24.352258265655472 7.934430477691722 19.926938967035618 4 -6 0
1781 70 3 0.0 21.340286894958787 59.023139664740455 20.129741446842598 -4 -6 0
1783 70 3 0.0 18.728065775742976 59.47905856867917 20.18525654906188 -4 -6 0
3004 223 3 0.0 23.210690466336352 6.886132102005327 20.092110517838087 4 -6 0
3005 223 3 0.0 23.142798867942034 6.06465008734385 18.903967211483916 4 -6 0
3006 223 3 0.0 22.220640978931996 4.747537703920328 19.065154978554286 4 -6 0
3007 223 3 0.0 20.872286011947086 4.9919555621371865 19.833056514926504 4 -6 0
3008 223 2 0.0 19.886448385219094 3.8808733934279895 19.84519927785343 4 -6 0
30 1 1 0.0 18.446299 3.5499920000000014 15.454204244045512 0 0 0
32 1 1 0.0 18.446299 0.709998 15.454204244045512 0 0 0
33 1 1 0.0 19.676052000000002 1.419997 15.454204244045512 0 0 0
34 1 1 0.0 20.905806 3.5499920000000014 15.454204244045512 0 0 0
35 1 1 0.0 19.676052000000002 2.839994000000001 15.454204244045512 0 0 0
36 1 1 0.0 20.905806 0.709998 15.454204244045512 0 0 0
37 1 1 0.0 22.135559 1.419997 15.454204244045512 0 0 0
38 1 1 0.0 23.365313000000004 3.5499920000000014 15.454204244045512 0 0 0
39 1 1 0.0 22.135559 2.839994000000001 15.454204244045512 0 0 0
40 1 1 0.0 23.365313000000004 0.709998 15.454204244045512 0 0 0
41 1 1 0.0 24.595066 1.419997 15.454204244045512 0 0 0
42 1 1 0.0 25.82482 3.5499920000000014 15.454204244045512 0 0 0
43 1 1 0.0 24.595066 2.839994000000001 15.454204244045512 0 0 0
44 1 1 0.0 25.82482 0.709998 15.454204244045512 0 0 0
74 1 1 0.0 18.446299 7.809983000000001 15.454204244045512 0 0 0
76 1 1 0.0 18.446299 4.969989 15.454204244045512 0 0 0
77 1 1 0.0 19.676052000000002 5.679988 15.454204244045512 0 0 0
78 1 1 0.0 20.905806 7.809983000000001 15.454204244045512 0 0 0
79 1 1 0.0 19.676052000000002 7.0999850000000055 15.454204244045512 0 0 0
80 1 1 0.0 20.905806 4.969989 15.454204244045512 0 0 0
81 1 1 0.0 22.135559 5.679988 15.454204244045512 0 0 0
82 1 1 0.0 23.365313000000004 7.809983000000001 15.454204244045512 0 0 0
83 1 1 0.0 22.135559 7.0999850000000055 15.454204244045512 0 0 0
84 1 1 0.0 23.365313000000004 4.969989 15.454204244045512 0 0 0
85 1 1 0.0 24.595066 5.679988 15.454204244045512 0 0 0
86 1 1 0.0 25.82482 7.809983000000001 15.454204244045512 0 0 0
87 1 1 0.0 24.595066 7.0999850000000055 15.454204244045512 0 0 0
88 1 1 0.0 25.82482 4.969989 15.454204244045512 0 0 0
1784 70 2 0.0 17.48156930625351 59.1031029110393 19.398158290131008 -4 -6 0
1782 70 3 0.0 19.985467024320364 59.059435702641586 19.343686912753203 -4 -6 0
1779 70 3 0.0 23.556472779822325 58.45514657294664 20.62727613729144 -4 -6 0
1780 70 3 0.0 22.623620634121178 58.6036463840965 19.457006524234345 -4 -6 0
2376 144 2 0.0 6.346629498497596 8.108245347577311 18.93638729459901 1 -2 0
89 1 1 0.0 0.0 9.939979000000012 15.454204244045512 0 0 0
92 1 1 0.0 1.229753 9.229980000000012 15.454204244045512 0 0 0
93 1 1 0.0 2.459507 9.939979000000012 15.454204244045512 0 0 0
96 1 1 0.0 3.68926 9.229980000000012 15.454204244045512 0 0 0
97 1 1 0.0 4.919013 9.939979000000012 15.454204244045512 0 0 0
100 1 1 0.0 6.148767 9.229980000000012 15.454204244045512 0 0 0
101 1 1 0.0 7.37852 9.939979000000012 15.454204244045512 0 0 0
104 1 1 0.0 8.608273 9.229980000000012 15.454204244045512 0 0 0
90 1 1 0.0 1.229753 12.069974 15.454204244045512 0 0 0
91 1 1 0.0 0.0 11.359976 15.454204244045512 0 0 0
94 1 1 0.0 3.68926 12.069974 15.454204244045512 0 0 0
95 1 1 0.0 2.459507 11.359976 15.454204244045512 0 0 0
98 1 1 0.0 6.148767 12.069974 15.454204244045512 0 0 0
99 1 1 0.0 4.919013 11.359976 15.454204244045512 0 0 0
102 1 1 0.0 8.608273 12.069974 15.454204244045512 0 0 0
103 1 1 0.0 7.37852 11.359976 15.454204244045512 0 0 0
133 1 1 0.0 0.0 14.199969000000014 15.454204244045512 0 0 0
134 1 1 0.0 1.229753 16.329966000000002 15.454204244045512 0 0 0
135 1 1 0.0 0.0 15.619967000000003 15.454204244045512 0 0 0
136 1 1 0.0 1.229753 13.489971000000008 15.454204244045512 0 0 0
137 1 1 0.0 2.459507 14.199969000000014 15.454204244045512 0 0 0
138 1 1 0.0 3.68926 16.329966000000002 15.454204244045512 0 0 0
139 1 1 0.0 2.459507 15.619967000000003 15.454204244045512 0 0 0
140 1 1 0.0 3.68926 13.489971000000008 15.454204244045512 0 0 0
141 1 1 0.0 4.919013 14.199969000000014 15.454204244045512 0 0 0
142 1 1 0.0 6.148767 16.329966000000002 15.454204244045512 0 0 0
143 1 1 0.0 4.919013 15.619967000000003 15.454204244045512 0 0 0
144 1 1 0.0 6.148767 13.489971000000008 15.454204244045512 0 0 0
145 1 1 0.0 7.37852 14.199969000000014 15.454204244045512 0 0 0
146 1 1 0.0 8.608273 16.329966000000002 15.454204244045512 0 0 0
147 1 1 0.0 7.37852 15.619967000000003 15.454204244045512 0 0 0
148 1 1 0.0 8.608273 13.489971000000008 15.454204244045512 0 0 0
4792 446 2 0.0 4.651962679092331 14.334423896235208 19.809914232810105 -1 -7 0
4791 446 3 0.0 4.365542237243867 12.872553297735813 19.62491775606536 -1 -7 0
4790 446 3 0.0 3.0187172356985026 12.827124837280845 18.956487409200665 -1 -7 0
4789 446 3 0.0 1.8610129139894123 13.062407306249542 19.854239544800173 -1 -7 0
4425 401 2 0.0 10.359774829441045 12.862064166794939 19.506068967315834 2 -4 0
4429 401 3 0.0 10.590052775488997 7.972821570991528 19.750581412022463 2 -4 0
4426 401 3 0.0 10.955756746833252 11.726166220920895 20.353841722144487 2 -4 0
4427 401 3 0.0 10.558479961320595 10.426118976050848 19.727234472086636 2 -4 0
4428 401 3 0.0 11.028490165519226 9.161099871074752 20.54610370212984 2 -4 0
3198 247 3 0.0 14.413971663519357 16.972115548694912 19.89531686833299 -3 -4 0
3197 247 3 0.0 14.761892575343488 15.78326471330699 19.11935624818351 -3 -4 0
105 1 1 0.0 9.838026 9.939979000000012 15.454204244045512 0 0 0
108 1 1 0.0 11.06778 9.229980000000012 15.454204244045512 0 0 0
109 1 1 0.0 12.297533 9.939979000000012 15.454204244045512 0 0 0
112 1 1 0.0 13.527287 9.229980000000012 15.454204244045512 0 0 0
113 1 1 0.0 14.757039000000002 9.939979000000012 15.454204244045512 0 0 0
116 1 1 0.0 15.986792999999999 9.229980000000012 15.454204244045512 0 0 0
117 1 1 0.0 17.216545 9.939979000000012 15.454204244045512 0 0 0
106 1 1 0.0 11.06778 12.069974 15.454204244045512 0 0 0
107 1 1 0.0 9.838026 11.359976 15.454204244045512 0 0 0
110 1 1 0.0 13.527287 12.069974 15.454204244045512 0 0 0
111 1 1 0.0 12.297533 11.359976 15.454204244045512 0 0 0
114 1 1 0.0 15.986792999999999 12.069974 15.454204244045512 0 0 0
115 1 1 0.0 14.757039000000002 11.359976 15.454204244045512 0 0 0
119 1 1 0.0 17.216545 11.359976 15.454204244045512 0 0 0
149 1 1 0.0 9.838026 14.199969000000014 15.454204244045512 0 0 0
150 1 1 0.0 11.06778 16.329966000000002 15.454204244045512 0 0 0
151 1 1 0.0 9.838026 15.619967000000003 15.454204244045512 0 0 0
152 1 1 0.0 11.06778 13.489971000000008 15.454204244045512 0 0 0
153 1 1 0.0 12.297533 14.199969000000014 15.454204244045512 0 0 0
154 1 1 0.0 13.527287 16.329966000000002 15.454204244045512 0 0 0
155 1 1 0.0 12.297533 15.619967000000003 15.454204244045512 0 0 0
156 1 1 0.0 13.527287 13.489971000000008 15.454204244045512 0 0 0
157 1 1 0.0 14.757039000000002 14.199969000000014 15.454204244045512 0 0 0
158 1 1 0.0 15.986792999999999 16.329966000000002 15.454204244045512 0 0 0
159 1 1 0.0 14.757039000000002 15.619967000000003 15.454204244045512 0 0 0
160 1 1 0.0 15.986792999999999 13.489971000000008 15.454204244045512 0 0 0
161 1 1 0.0 17.216545 14.199969000000014 15.454204244045512 0 0 0
163 1 1 0.0 17.216545 15.619967000000003 15.454204244045512 0 0 0
3195 247 3 0.0 14.954054579955269 13.102503601120581 19.211652274168618 -3 -4 0
3196 247 3 0.0 14.600442503572069 14.474944791874648 19.93479885413817 -3 -4 0
3194 247 3 0.0 14.906197849208953 11.905983641378556 20.18844127650098 -3 -4 0
3193 247 2 0.0 15.123470360028927 10.514368909401137 19.509517694095447 -3 -4 0
4448 403 2 0.0 19.84528454973742 8.639153468279911 20.528164352805764 7 -4 0
4788 446 3 0.0 0.5913661178927891 13.314017563555621 18.971326054631405 -1 -7 0
4447 403 3 0.0 20.74372785239783 9.187725668697503 19.48186352974238 7 -4 0
4787 446 3 0.0 26.458910639380726 13.65016793120353 19.80353229188966 -2 -7 0
4786 446 3 0.0 25.22019693932326 14.054202374740793 19.037626906317843 -2 -7 0
4446 403 3 0.0 21.089408887056088 10.654236647368574 19.65609628405304 7 -4 0
4445 403 3 0.0 19.77790930521403 11.37256570696081 19.228401944911976 7 -4 0
120 1 1 0.0 18.446299 9.229980000000012 15.454204244045512 0 0 0
121 1 1 0.0 19.676052000000002 9.939979000000012 15.454204244045512 0 0 0
124 1 1 0.0 20.905806 9.229980000000012 15.454204244045512 0 0 0
125 1 1 0.0 22.135559 9.939979000000012 15.454204244045512 0 0 0
128 1 1 0.0 23.365313000000004 9.229980000000012 15.454204244045512 0 0 0
129 1 1 0.0 24.595066 9.939979000000012 15.454204244045512 0 0 0
132 1 1 0.0 25.82482 9.229980000000012 15.454204244045512 0 0 0
118 1 1 0.0 18.446299 12.069974 15.454204244045512 0 0 0
122 1 1 0.0 20.905806 12.069974 15.454204244045512 0 0 0
123 1 1 0.0 19.676052000000002 11.359976 15.454204244045512 0 0 0
126 1 1 0.0 23.365313000000004 12.069974 15.454204244045512 0 0 0
127 1 1 0.0 22.135559 11.359976 15.454204244045512 0 0 0
130 1 1 0.0 25.82482 12.069974 15.454204244045512 0 0 0
131 1 1 0.0 24.595066 11.359976 15.454204244045512 0 0 0
162 1 1 0.0 18.446299 16.329966000000002 15.454204244045512 0 0 0
164 1 1 0.0 18.446299 13.489971000000008 15.454204244045512 0 0 0
165 1 1 0.0 19.676052000000002 14.199969000000014 15.454204244045512 0 0 0
166 1 1 0.0 20.905806 16.329966000000002 15.454204244045512 0 0 0
167 1 1 0.0 19.676052000000002 15.619967000000003 15.454204244045512 0 0 0
168 1 1 0.0 20.905806 13.489971000000008 15.454204244045512 0 0 0
169 1 1 0.0 22.135559 14.199969000000014 15.454204244045512 0 0 0
170 1 1 0.0 23.365313000000004 16.329966000000002 15.454204244045512 0 0 0
171 1 1 0.0 22.135559 15.619967000000003 15.454204244045512 0 0 0
172 1 1 0.0 23.365313000000004 13.489971000000008 15.454204244045512 0 0 0
173 1 1 0.0 24.595066 14.199969000000014 15.454204244045512 0 0 0
174 1 1 0.0 25.82482 16.329966000000002 15.454204244045512 0 0 0
175 1 1 0.0 24.595066 15.619967000000003 15.454204244045512 0 0 0
176 1 1 0.0 25.82482 13.489971000000008 15.454204244045512 0 0 0
4785 446 2 0.0 25.17078669610533 15.594187237332475 18.815639377872856 -2 -7 0
4444 403 3 0.0 20.174129813365493 12.878464626900112 19.019768159916335 7 -4 0
4443 403 3 0.0 20.406390023610705 13.545238118076256 20.312087775346885 7 -4 0
2992 221 2 0.0 3.6041427637159957 20.887056016453144 19.607769623221145 2 -4 0
2990 221 3 0.0 4.663950742712525 18.59360489585572 19.685333972228705 2 -4 0
2989 221 3 0.0 5.782562510673355 19.098953005774426 18.811035245781596 2 -4 0
2988 221 3 0.0 7.113060307250696 18.462742626508145 19.278428128544682 2 -4 0
2991 221 3 0.0 3.3917477657839927 19.356870885064946 19.598306059037522 2 -4 0
177 1 1 0.0 0.0 18.459961 15.454204244045512 0 0 0
179 1 1 0.0 0.0 19.879957000000005 15.454204244045512 0 0 0
180 1 1 0.0 1.229753 17.749962000000014 15.454204244045512 0 0 0
181 1 1 0.0 2.459507 18.459961 15.454204244045512 0 0 0
183 1 1 0.0 2.459507 19.879957000000005 15.454204244045512 0 0 0
184 1 1 0.0 3.68926 17.749962000000014 15.454204244045512 0 0 0
185 1 1 0.0 4.919013 18.459961 15.454204244045512 0 0 0
187 1 1 0.0 4.919013 19.879957000000005 15.454204244045512 0 0 0
188 1 1 0.0 6.148767 17.749962000000014 15.454204244045512 0 0 0
189 1 1 0.0 7.37852 18.459961 15.454204244045512 0 0 0
191 1 1 0.0 7.37852 19.879957000000005 15.454204244045512 0 0 0
192 1 1 0.0 8.608273 17.749962000000014 15.454204244045512 0 0 0
178 1 1 0.0 1.229753 20.589956000000026 15.454204244045512 0 0 0
182 1 1 0.0 3.68926 20.589956000000026 15.454204244045512 0 0 0
186 1 1 0.0 6.148767 20.589956000000026 15.454204244045512 0 0 0
190 1 1 0.0 8.608273 20.589956000000026 15.454204244045512 0 0 0
221 1 1 0.0 0.0 22.719952 15.454204244045512 0 0 0
222 1 1 0.0 1.229753 24.84994700000002 15.454204244045512 0 0 0
223 1 1 0.0 0.0 24.139948 15.454204244045512 0 0 0
224 1 1 0.0 1.229753 22.00995300000001 15.454204244045512 0 0 0
225 1 1 0.0 2.459507 22.719952 15.454204244045512 0 0 0
226 1 1 0.0 3.68926 24.84994700000002 15.454204244045512 0 0 0
227 1 1 0.0 2.459507 24.139948 15.454204244045512 0 0 0
228 1 1 0.0 3.68926 22.00995300000001 15.454204244045512 0 0 0
229 1 1 0.0 4.919013 22.719952 15.454204244045512 0 0 0
230 1 1 0.0 6.148767 24.84994700000002 15.454204244045512 0 0 0
231 1 1 0.0 4.919013 24.139948 15.454204244045512 0 0 0
232 1 1 0.0 6.148767 22.00995300000001 15.454204244045512 0 0 0
233 1 1 0.0 7.37852 22.719952 15.454204244045512 0 0 0
234 1 1 0.0 8.608273 24.84994700000002 15.454204244045512 0 0 0
235 1 1 0.0 7.37852 24.139948 15.454204244045512 0 0 0
236 1 1 0.0 8.608273 22.00995300000001 15.454204244045512 0 0 0
2096 109 2 0.0 2.713922924758192 20.864350866936338 23.49843034135751 -2 -6 0
1543 40 3 0.0 8.909182696276526 22.113733643842274 19.219560665192454 2 -7 0
1544 40 2 0.0 7.415613083716551 22.087782675069885 19.604488625047036 2 -7 0
1542 40 3 0.0 9.819064508527573 21.309573909495022 20.184427855309792 2 -7 0
2541 165 3 0.0 26.81074310162946 21.337644037381153 19.813580193479336 -1 -5 0
1865 81 2 0.0 1.8916927738994378 25.58055893395151 19.22837015834887 -1 -4 0
2987 221 3 0.0 6.853082862511195 16.92703361794673 19.483706866469706 2 -4 0
3199 247 3 0.0 14.198400212055438 18.288847482427 19.162802503949838 -3 -4 0
2986 221 3 0.0 8.030558097059783 16.260761822999143 20.23165701302623 2 -4 0
2985 221 2 0.0 9.245046552712868 17.158887728026738 20.19649275841422 2 -4 0
3200 247 2 0.0 14.745225707475573 19.649637612342346 19.651139426865623 -3 -4 0
193 1 1 0.0 9.838026 18.459961 15.454204244045512 0 0 0
195 1 1 0.0 9.838026 19.879957000000005 15.454204244045512 0 0 0
196 1 1 0.0 11.06778 17.749962000000014 15.454204244045512 0 0 0
197 1 1 0.0 12.297533 18.459961 15.454204244045512 0 0 0
199 1 1 0.0 12.297533 19.879957000000005 15.454204244045512 0 0 0
200 1 1 0.0 13.527287 17.749962000000014 15.454204244045512 0 0 0
201 1 1 0.0 14.757039000000002 18.459961 15.454204244045512 0 0 0
203 1 1 0.0 14.757039000000002 19.879957000000005 15.454204244045512 0 0 0
204 1 1 0.0 15.986792999999999 17.749962000000014 15.454204244045512 0 0 0
205 1 1 0.0 17.216545 18.459961 15.454204244045512 0 0 0
207 1 1 0.0 17.216545 19.879957000000005 15.454204244045512 0 0 0
194 1 1 0.0 11.06778 20.589956000000026 15.454204244045512 0 0 0
198 1 1 0.0 13.527287 20.589956000000026 15.454204244045512 0 0 0
202 1 1 0.0 15.986792999999999 20.589956000000026 15.454204244045512 0 0 0
237 1 1 0.0 9.838026 22.719952 15.454204244045512 0 0 0
238 1 1 0.0 11.06778 24.84994700000002 15.454204244045512 0 0 0
239 1 1 0.0 9.838026 24.139948 15.454204244045512 0 0 0
240 1 1 0.0 11.06778 22.00995300000001 15.454204244045512 0 0 0
241 1 1 0.0 12.297533 22.719952 15.454204244045512 0 0 0
242 1 1 0.0 13.527287 24.84994700000002 15.454204244045512 0 0 0
243 1 1 0.0 12.297533 24.139948 15.454204244045512 0 0 0
244 1 1 0.0 13.527287 22.00995300000001 15.454204244045512 0 0 0
245 1 1 0.0 14.757039000000002 22.719952 15.454204244045512 0 0 0
246 1 1 0.0 15.986792999999999 24.84994700000002 15.454204244045512 0 0 0
247 1 1 0.0 14.757039000000002 24.139948 15.454204244045512 0 0 0
248 1 1 0.0 15.986792999999999 22.00995300000001 15.454204244045512 0 0 0
249 1 1 0.0 17.216545 22.719952 15.454204244045512 0 0 0
251 1 1 0.0 17.216545 24.139948 15.454204244045512 0 0 0
1539 40 3 0.0 12.891233375179569 22.733290206127535 20.713770410480723 2 -7 0
1541 40 3 0.0 11.123599649654338 21.38976705506689 19.480192616152642 2 -7 0
1540 40 3 0.0 11.88929618476473 22.60409855320439 19.540941530528116 2 -7 0
1538 40 3 0.0 12.182660068841573 22.7434326269303 22.02957710984589 2 -7 0
1537 40 2 0.0 12.943007812418731 23.33500848657928 23.186527003344533 2 -7 0
1304 10 2 0.0 16.29518550577858 25.657683050010768 19.421107014725838 -3 -6 0
1303 10 3 0.0 16.72530222924927 24.159427195040784 19.718656724481807 -3 -6 0
2544 165 2 0.0 23.496664648008707 19.595325332615676 20.1014874851426 -1 -5 0
1297 10 2 0.0 18.616949843159524 17.867436130369775 19.468328632457066 -3 -6 0
1298 10 3 0.0 18.43697244445174 19.372183373885367 19.41739019507498 -3 -6 0
2543 165 3 0.0 24.73172281470337 19.989969415274793 19.470314834809948 -1 -5 0
2540 165 3 0.0 26.320201577580466 22.4959126279808 19.03509467544352 -1 -5 0
2542 165 3 0.0 25.711812609518187 20.57512921286674 20.4739256447629 -1 -5 0
2539 165 3 0.0 25.492624928153933 23.59097255110305 19.82324013313154 -1 -5 0
1300 10 3 0.0 19.462023472080215 21.575504289427 18.86841914175511 -3 -6 0
1299 10 3 0.0 19.62474003205852 20.301654091780357 19.560817752518865 -3 -6 0
1301 10 3 0.0 18.288570740631382 22.33318810056654 19.454265264260396 -3 -6 0
1302 10 3 0.0 17.95536079872408 23.697422737198604 18.94126321636188 -3 -6 0
208 1 1 0.0 18.446299 17.749962000000014 15.454204244045512 0 0 0
209 1 1 0.0 19.676052000000002 18.459961 15.454204244045512 0 0 0
211 1 1 0.0 19.676052000000002 19.879957000000005 15.454204244045512 0 0 0
212 1 1 0.0 20.905806 17.749962000000014 15.454204244045512 0 0 0
213 1 1 0.0 22.135559 18.459961 15.454204244045512 0 0 0
215 1 1 0.0 22.135559 19.879957000000005 15.454204244045512 0 0 0
216 1 1 0.0 23.365313000000004 17.749962000000014 15.454204244045512 0 0 0
217 1 1 0.0 24.595066 18.459961 15.454204244045512 0 0 0
219 1 1 0.0 24.595066 19.879957000000005 15.454204244045512 0 0 0
220 1 1 0.0 25.82482 17.749962000000014 15.454204244045512 0 0 0
206 1 1 0.0 18.446299 20.589956000000026 15.454204244045512 0 0 0
210 1 1 0.0 20.905806 20.589956000000026 15.454204244045512 0 0 0
214 1 1 0.0 23.365313000000004 20.589956000000026 15.454204244045512 0 0 0
218 1 1 0.0 25.82482 20.589956000000026 15.454204244045512 0 0 0
250 1 1 0.0 18.446299 24.84994700000002 15.454204244045512 0 0 0
252 1 1 0.0 18.446299 22.00995300000001 15.454204244045512 0 0 0
253 1 1 0.0 19.676052000000002 22.719952 15.454204244045512 0 0 0
254 1 1 0.0 20.905806 24.84994700000002 15.454204244045512 0 0 0
255 1 1 0.0 19.676052000000002 24.139948 15.454204244045512 0 0 0
256 1 1 0.0 20.905806 22.00995300000001 15.454204244045512 0 0 0
257 1 1 0.0 22.135559 22.719952 15.454204244045512 0 0 0
258 1 1 0.0 23.365313000000004 24.84994700000002 15.454204244045512 0 0 0
259 1 1 0.0 22.135559 24.139948 15.454204244045512 0 0 0
260 1 1 0.0 23.365313000000004 22.00995300000001 15.454204244045512 0 0 0
261 1 1 0.0 24.595066 22.719952 15.454204244045512 0 0 0
262 1 1 0.0 25.82482 24.84994700000002 15.454204244045512 0 0 0
263 1 1 0.0 24.595066 24.139948 15.454204244045512 0 0 0
264 1 1 0.0 25.82482 22.00995300000001 15.454204244045512 0 0 0
1867 81 3 0.0 3.995273395021138 24.999090973170738 19.8091756419388 -1 -4 0
1866 81 3 0.0 2.9595770999592768 24.572262883368964 18.906027819844173 -1 -4 0
265 1 1 0.0 0.0 26.979942000000012 15.454204244045512 0 0 0
266 1 1 0.0 1.229753 29.109938000000017 15.454204244045512 0 0 0
267 1 1 0.0 0.0 28.399939 15.454204244045512 0 0 0
268 1 1 0.0 1.229753 26.269943000000037 15.454204244045512 0 0 0
269 1 1 0.0 2.459507 26.979942000000012 15.454204244045512 0 0 0
270 1 1 0.0 3.68926 29.109938000000017 15.454204244045512 0 0 0
271 1 1 0.0 2.459507 28.399939 15.454204244045512 0 0 0
272 1 1 0.0 3.68926 26.269943000000037 15.454204244045512 0 0 0
273 1 1 0.0 4.919013 26.979942000000012 15.454204244045512 0 0 0
274 1 1 0.0 6.148767 29.109938000000017 15.454204244045512 0 0 0
275 1 1 0.0 4.919013 28.399939 15.454204244045512 0 0 0
276 1 1 0.0 6.148767 26.269943000000037 15.454204244045512 0 0 0
277 1 1 0.0 7.37852 26.979942000000012 15.454204244045512 0 0 0
278 1 1 0.0 8.608273 29.109938000000017 15.454204244045512 0 0 0
279 1 1 0.0 7.37852 28.399939 15.454204244045512 0 0 0
280 1 1 0.0 8.608273 26.269943000000037 15.454204244045512 0 0 0
309 1 1 0.0 0.0 31.239933000000008 15.454204244045512 0 0 0
310 1 1 0.0 1.229753 33.369926000000035 15.454204244045512 0 0 0
311 1 1 0.0 0.0 32.659931 15.454204244045512 0 0 0
312 1 1 0.0 1.229753 30.529934000000004 15.454204244045512 0 0 0
313 1 1 0.0 2.459507 31.239933000000008 15.454204244045512 0 0 0
314 1 1 0.0 3.68926 33.369926000000035 15.454204244045512 0 0 0
315 1 1 0.0 2.459507 32.659931 15.454204244045512 0 0 0
316 1 1 0.0 3.68926 30.529934000000004 15.454204244045512 0 0 0
317 1 1 0.0 4.919013 31.239933000000008 15.454204244045512 0 0 0
318 1 1 0.0 6.148767 33.369926000000035 15.454204244045512 0 0 0
319 1 1 0.0 4.919013 32.659931 15.454204244045512 0 0 0
320 1 1 0.0 6.148767 30.529934000000004 15.454204244045512 0 0 0
321 1 1 0.0 7.37852 31.239933000000008 15.454204244045512 0 0 0
322 1 1 0.0 8.608273 33.369926000000035 15.454204244045512 0 0 0
323 1 1 0.0 7.37852 32.659931 15.454204244045512 0 0 0
324 1 1 0.0 8.608273 30.529934000000004 15.454204244045512 0 0 0
3694 309 3 0.0 3.581963815414982 30.997105539575795 18.98019219977866 0 -8 0
3693 309 3 0.0 2.1094026700912223 31.232691394686835 19.490159670042708 0 -8 0
3695 309 3 0.0 4.0707626955835226 29.583379306273144 19.123612507750288 0 -8 0
3696 309 2 0.0 4.502444663598023 29.37770223285125 20.547816168010776 0 -8 0
3692 309 3 0.0 1.1634217214487361 30.158311003962087 18.94717574093694 0 -8 0
3691 309 3 0.0 26.719027777449217 30.142809459814934 19.467370243085504 -1 -8 0
3690 309 3 0.0 25.873332888384926 31.374133690866103 19.206026110689702 -1 -8 0
4160 367 2 0.0 9.23849209515702 33.34169645120805 18.87540867154872 -5 -3 0
4159 367 3 0.0 8.114335228440336 32.235642733669216 19.11097779231412 -5 -3 0
4158 367 3 0.0 8.642850717128105 30.772791694931403 18.945071240239173 -5 -3 0
4157 367 3 0.0 7.718391900885491 29.57807784139792 19.37899501811259 -5 -3 0
4156 367 3 0.0 8.524603463343876 28.260840347394186 19.27309522279231 -5 -3 0
281 1 1 0.0 9.838026 26.979942000000012 15.454204244045512 0 0 0
282 1 1 0.0 11.06778 29.109938000000017 15.454204244045512 0 0 0
283 1 1 0.0 9.838026 28.399939 15.454204244045512 0 0 0
284 1 1 0.0 11.06778 26.269943000000037 15.454204244045512 0 0 0
285 1 1 0.0 12.297533 26.979942000000012 15.454204244045512 0 0 0
286 1 1 0.0 13.527287 29.109938000000017 15.454204244045512 0 0 0
287 1 1 0.0 12.297533 28.399939 15.454204244045512 0 0 0
288 1 1 0.0 13.527287 26.269943000000037 15.454204244045512 0 0 0
289 1 1 0.0 14.757039000000002 26.979942000000012 15.454204244045512 0 0 0
290 1 1 0.0 15.986792999999999 29.109938000000017 15.454204244045512 0 0 0
291 1 1 0.0 14.757039000000002 28.399939 15.454204244045512 0 0 0
292 1 1 0.0 15.986792999999999 26.269943000000037 15.454204244045512 0 0 0
293 1 1 0.0 17.216545 26.979942000000012 15.454204244045512 0 0 0
295 1 1 0.0 17.216545 28.399939 15.454204244045512 0 0 0
325 1 1 0.0 9.838026 31.239933000000008 15.454204244045512 0 0 0
326 1 1 0.0 11.06778 33.369926000000035 15.454204244045512 0 0 0
327 1 1 0.0 9.838026 32.659931 15.454204244045512 0 0 0
328 1 1 0.0 11.06778 30.529934000000004 15.454204244045512 0 0 0
329 1 1 0.0 12.297533 31.239933000000008 15.454204244045512 0 0 0
330 1 1 0.0 13.527287 33.369926000000035 15.454204244045512 0 0 0
331 1 1 0.0 12.297533 32.659931 15.454204244045512 0 0 0
332 1 1 0.0 13.527287 30.529934000000004 15.454204244045512 0 0 0
333 1 1 0.0 14.757039000000002 31.239933000000008 15.454204244045512 0 0 0
334 1 1 0.0 15.986792999999999 33.369926000000035 15.454204244045512 0 0 0
335 1 1 0.0 14.757039000000002 32.659931 15.454204244045512 0 0 0
336 1 1 0.0 15.986792999999999 30.529934000000004 15.454204244045512 0 0 0
337 1 1 0.0 17.216545 31.239933000000008 15.454204244045512 0 0 0
339 1 1 0.0 17.216545 32.659931 15.454204244045512 0 0 0
4155 367 3 0.0 9.751772737959277 28.33997431420405 20.024993169575108 -5 -3 0
3912 336 2 0.0 14.39014306869384 31.26915073398045 20.91653247029065 4 -7 0
3908 336 3 0.0 16.983485849483735 34.445340852939516 19.66118415746393 4 -7 0
3910 336 3 0.0 14.599803666930159 33.62083390747056 20.140173912798762 4 -7 0
3911 336 3 0.0 13.765047979550209 32.3328271794772 19.995650621533162 4 -7 0
3909 336 3 0.0 15.902755076375179 33.47870576498849 19.322758277930575 4 -7 0
3336 264 2 0.0 18.309556562942838 29.449285284801668 18.879968029902063 5 -2 0
4153 367 2 0.0 12.00482451156753 27.064662300081824 20.15565955388062 -5 -3 0