
units real
boundary p p p
atom_style full
pair_style  lj/cut 13.0

bond_style      harmonic
angle_style     harmonic
dihedral_style opls



read_data in.data
Reading data file ...
  orthogonal box = (-0.037475 0.202136 14.043014) to (27.017125 59.842036 151.28211)
  1 by 1 by 1 MPI processor grid
  reading atoms ...
  4992 atoms
  reading velocities ...
  4992 velocities
  scanning bonds ...
  3 = max bonds/atom
  scanning angles ...
  3 = max angles/atom
  scanning dihedrals ...
  12 = max dihedrals/atom
  reading bonds ...
  5060 bonds
  reading angles ...
  6208 angles
  reading dihedrals ...
  8880 dihedrals
Finding 1-2 1-3 1-4 neighbors ...
  special bond factors lj:    0.0      0.0      0.0     
  special bond factors coul:  0.0      0.0      0.0     
     3 = max # of 1-2 neighbors
     6 = max # of 1-3 neighbors
    18 = max # of 1-4 neighbors
    18 = max # of special neighbors
  special bonds CPU = 0.008 seconds
  read_data CPU = 0.075 seconds
include ../Trial_01/oil_graphene.ff
#Pair Coeffs # lj/cut/omp

pair_coeff 1 1 0.0 0.0 #C-C
pair_coeff 1 2 0.111 3.728 #C-CH3
pair_coeff 1 3 0.091 3.728 #C-CH2
pair_coeff 2 2 0.175 3.905 #CH3-CH3
pair_coeff 2 3 0.144 3.905 #CH3-CH2
pair_coeff 3 3 0.118 3.905 #CH2-CH2


#Bond Coeffs # harmonic/omp

bond_coeff 1 0.0 1.400
bond_coeff 2 260.0 1.526

#Angle Coeffs # harmonic/omp

angle_coeff 1 0.0 120.0
angle_coeff 2 63.0 112.0
angle_coeff 3 63.0 112.0

#Dihedral Coeffs # opls/omp

dihedral_coeff 1 0.0 0.0 0.0 0.0
dihedral_coeff 2 1.411 -0.271 3.145 0
dihedral_coeff 3 1.411 -0.271 3.145 0

variable  dt equal 1
variable Temp equal 340.0
variable Press equal 200.0
group oil type 2:3
3760 atoms in group oil
group graphene type 1
1232 atoms in group graphene
group  upper_graphene id 617:1232
616 atoms in group upper_graphene
group lower_graphene id 1:616
616 atoms in group lower_graphene
group dilate_group union oil upper_graphene
4376 atoms in group dilate_group
velocity oil create ${Temp} 53244 dist gaussian mom yes rot yes
velocity oil create 340 53244 dist gaussian mom yes rot yes
# delete_atoms group graphene bond yes mol yes
# write_data afterdel.data

neighbor 2 bin
neigh_modify  delay 0 every 10 check yes



timestep ${dt}
timestep 1

fix setfhi upper_graphene setforce 0.0 0.0 NULL
variable Sz equal lx*ly
# variable fz equal (${Press}*${Sz}*4.0196E-13/count(upper_graphene))
fix avefhi upper_graphene aveforce NULL  NULL -0.00382
fix setflo lower_graphene setforce 0.0 0.0 0.0

variable shi equal -f_setfhi[1]/${Sz}
variable shi equal -f_setfhi[1]/1613.53363854
variable phi equal f_avefhi[3]/${Sz}
variable phi equal f_avefhi[3]/1613.53363854
variable slo equal f_setflo[1]/${Sz}
variable slo equal f_setflo[1]/1613.53363854
variable plo equal -f_setflo[3]/${Sz}
variable plo equal -f_setflo[3]/1613.53363854

compute oil_temp oil temp
variable oilTemp equal c_oil_temp

compute      oil_press all pressure oil_temp
variable oilPress equal c_oil_press



thermo          1000
thermo_style    custom step temp c_oil_temp press  c_oil_press pe etotal   lx ly v_shi v_phi v_slo v_plo
# thermo_modify   norm no

fix     npt_1 all nvt temp ${Temp} ${Temp} $(dt*100)
fix     npt_1 all nvt temp 340 ${Temp} $(dt*100)
fix     npt_1 all nvt temp 340 340 $(dt*100)
fix     npt_1 all nvt temp 340 340 100
# fix_modify   npt_1 temp oil_temp  press oil_press


dump 2 all custom 2000 ${dump_file_name} id mol type x y z
dump 2 all custom 2000 npt_octane_ua_graphene.lammpstrj id mol type x y z
# dump_modify 2 sort id


fix txt_file_npt all print 1000 "$(step)  $(temp) ${oilTemp} $(press) ${oilPress} $(vol) $(pe) $(density)"  file ${file_name} screen no         title "#step temp oiltemp press oilpress vol pe density"
fix txt_file_npt all print 1000 "$(step)  $(temp) ${oilTemp} $(press) ${oilPress} $(vol) $(pe) $(density)"  file npt_octane_ua_graphene.dat screen no         title "#step temp oiltemp press oilpress vol pe density"

run 3000000
Last active /omp style is dihedral_style opls/omp
Neighbor list info ...
  update every 10 steps, delay 0 steps, check yes
  max neighbors/atom: 2000, page size: 100000
  master list distance cutoff = 15
  ghost atom cutoff = 15
  binsize = 7.5, bins = 4 8 19
  1 neighbor lists, perpetual/occasional/extra = 1 0 0
  (1) pair lj/cut/omp, perpetual
      attributes: half, newton on, omp
      pair build: half/bin/newton/omp
      stencil: half/bin/3d/newton
      bin: standard
Per MPI rank memory allocation (min/avg/max) = 46.68 | 46.68 | 46.68 Mbytes
Step Temp c_oil_temp Press c_oil_press PotEng TotEng Lx Ly v_shi v_phi v_slo v_plo 
       0    256.07293          340   -479.14738   -479.14738     872.5157    4682.1698      27.0546      59.6399 -0.00049150923 -0.0087456894 -0.00032859538 -0.005439305 
    1000    342.38738    454.59236    48.680491    48.654196     902.1274    5995.9008      27.0546      59.6399  0.000192126 -0.014159209 0.00024000561 0.00057386974 
    2000    334.26887    443.79416   -219.47106   -219.54103    893.67757    5866.6701      27.0546      59.6399 0.00013353177 -0.021380583 -0.00043515544  0.012886089 
    3000     340.1493    451.50672    -198.3812   -198.67124     873.4161     5933.893      27.0546      59.6399 0.00047403597 -0.011314319 0.00043201974  0.012725669 
    4000    332.59102    441.31889   -33.448946   -34.091396     939.6614    5887.6921      27.0546      59.6399 0.00050266297  0.022568601 -1.5060728e-06 0.0035109426 
    5000    342.40952    454.29004    36.356005    35.562441     796.5334    5890.6362      27.0546      59.6399 -0.0004897655 -0.0037313765 -0.00050715369  0.016791403 
    6000    339.41109    450.22366   -167.17902    -168.1697    916.53125    5966.0257      27.0546      59.6399 0.00022668843 -0.0070233929 -0.00015207365 0.0066824846 
    7000    338.75723     449.5388    -277.8115   -278.37822    897.24462    5937.0115      27.0546      59.6399 0.00022300407 -0.0086805686 -5.5749152e-05 -0.0094483115 
    8000    339.91424     450.6507   -249.41961    -250.9678     738.6212    5795.6012      27.0546      59.6399 0.00077666807 0.0025998494 0.00043924179 0.0063701496 
    9000    335.98497    445.91328   -89.211208   -89.649905    782.71294    5781.2362      27.0546      59.6399 7.6262774e-05  0.015603593 0.00045301478 -0.011782731 
   10000     344.6438    457.20328   -270.89778    -271.8147    640.00119    5767.3439      27.0546      59.6399 -9.0671054e-05 -0.013794687 2.4373793e-05 -0.027044284 
   11000     339.8426    450.96606    -78.40853   -79.007234    798.38389     5854.298      27.0546      59.6399 -0.0006487087 0.0080362273 -0.00024173103 0.0093130483 
   12000    335.06026    444.50375   -5.2395959   -6.0987058    764.43848    5749.2047      27.0546      59.6399 -0.00028657249  -0.01568428 -0.00019794982 -0.0023978035 
   13000    341.71492    453.47166    198.38268    197.82938    749.15386    5832.9229      27.0546      59.6399 -0.00094450221  0.003343947 -0.00027939924 -0.0055089548 
   14000    341.55385    453.09333   -441.01527   -441.94901    719.84166    5801.2144      27.0546      59.6399 0.00053239058 -0.0098016737 0.00036080911 -0.0097456224 
   15000    335.10142    444.59298   -149.23173   -150.01084    687.65163    5673.0302      27.0546      59.6399 -0.00017686337  0.030330748 0.00011626384  0.023815106 
   16000    340.44982    451.63619    101.26413     100.3506    599.82475    5664.7726      27.0546      59.6399 -0.00019274331  0.018401887 0.00012546619 -0.0043115256 
   17000    340.70482    451.90667    28.882094    27.811053    564.60626    5633.3478      27.0546      59.6399 -0.00077303941 -0.018055246 -0.00054217307 0.0046018746 
   18000    338.72663    448.58611    121.75398    119.07765    640.65081    5679.9623      27.0546      59.6399 0.00067535742  0.013342018 0.00026855328 -0.0057245475 
   19000    339.04369    449.71445   -144.58467   -145.62485    575.00484    5619.0334      27.0546      59.6399 0.0010405002 0.0053008394 -0.00084890996 -0.0086360094 
   20000    341.64565    452.02666    157.15613    153.47324    453.64965    5536.3881      27.0546      59.6399 0.00032115696 -0.0019216499 -0.00031373889  0.041712218 
   21000    339.66952    450.10349    168.67219    166.60987    482.95642    5536.2956      27.0546      59.6399 0.00047784639 -0.0036509953 2.4998949e-05 -0.039769893 
   22000    339.85705    450.37801    197.51976    195.51648    344.53821    5400.6672      27.0546      59.6399 -0.00028405901 -0.010386526 -0.00054260743   0.01524761 
   23000    344.19709    456.55327    159.38408    158.33559    326.21227    5446.9091      27.0546      59.6399 0.00085268725 -0.014559475 0.00013376245 -0.017303207 
   24000    338.38759     448.9703    234.99831    234.25183    476.20431     5510.472      27.0546      59.6399 0.00026338504 -0.014042195 -6.5777857e-05 -0.015951846 
   25000     337.4977    447.51067   -288.94101   -290.33068    254.24389    5275.2724      27.0546      59.6399 -0.0007017046 -0.0084387801 -0.00018178079  0.008096502 
   26000    334.76197    443.09807   -13.555013   -16.749422    277.02843    5257.3569      27.0546      59.6399 -0.00038726228 -0.013979716 -0.00032992892   0.01375952 
   27000    348.12733    461.57116   -46.841069   -48.353262    185.95773    5365.1256      27.0546      59.6399 -0.00036793446   0.01436548 -0.00020389898 -0.015182548 
   28000     344.0369    455.98127    200.46846    198.58887    151.57729     5269.891      27.0546      59.6399 -2.6832515e-05  0.027513093 -0.0004955287  0.010904538 
   29000    333.58659    442.08964    179.09054    177.17334    247.01417    5209.8563      27.0546      59.6399 0.00088270108 -0.0069541859 -0.00089749899  0.027538764 
   30000    338.45577    448.93427    382.79512    381.75592    90.581894    5125.8639      27.0546      59.6399 0.0002052997  0.014316895 0.00031200328 -0.0092838567 
   31000    335.25019     444.6253    86.500969    85.339704    215.99401    5203.5858      27.0546      59.6399 -0.00014764147 -0.019781604 0.00082444145 -0.0040249881 
   32000    334.15341    443.48546   -101.62059   -102.04999    198.28979    5169.5646      27.0546      59.6399 0.00056829087 0.0089151697 0.00048259431 -0.017445881 
   33000    343.65731    456.05313   -156.38502   -156.93261    54.345016    5167.0114      27.0546      59.6399 3.5479983e-05  0.010138344 -0.00024000719 -0.011199448 
   34000    345.14052    458.01441     413.9971    413.43091   -33.061827    5101.6706      27.0546      59.6399 -0.00036393628  0.001542989 0.00016777221 -0.0098513871 
   35000    336.87461    447.00357    423.89083    423.24181    4.5354747    5016.2942      27.0546      59.6399 0.00056786379 0.0056512587 -0.00067998471  0.053677548 
   36000    336.78907    447.13518   -210.19044   -210.27236    9.2174784    5019.7036      27.0546      59.6399 0.00039696807 -0.017480758 0.00054691958 -0.00041581995 
   37000    342.40607    454.56798    249.42299     249.2829   -150.39133    4943.6601      27.0546      59.6399 -7.1096348e-05  0.023683979 0.00025286088 -0.021280351 
   38000    331.89566    440.67025    674.89925    674.89203    47.642877    4985.3286      27.0546      59.6399 1.8687573e-05  0.021447829 0.00058237164 -0.020512394 
   39000    343.27195    455.67532   -162.78346   -163.02147   -157.89674    4949.0366      27.0546      59.6399 -0.00031137468  0.010298584 0.00078938095   0.02565456 
   40000    336.46211    446.67927    200.63962    200.50731    21.239875    5026.8617      27.0546      59.6399 -0.0005485307  0.023132549 0.00041051985 0.0020304276 
   41000    337.39909    447.75176    117.75987    117.23069   -161.24992    4858.3116      27.0546      59.6399 -5.9337231e-05 -0.0090160596 0.00043262758  0.018405084 
   42000    342.85648    454.71318   -119.06081   -120.24832    29.149915    5129.9022      27.0546      59.6399 0.00024389384 0.0018154001 0.0003449673 0.0059027433 
   43000     340.8879    452.10836    545.82251    544.65573    34.297679     5105.763      27.0546      59.6399 -0.00023772797 -0.0074034284 -0.00017827857 -0.022572572 
   44000    337.51166    448.02635    152.01659    151.77683    20.861495    5042.0977      27.0546      59.6399 0.00034875698 -0.0013332597 0.00084134787 -0.0040949369 
   45000    346.85057    460.34434    273.42994    273.00116    41.492215    5201.6655      27.0546      59.6399 0.00021077876 -0.0008045686 -0.00041301106  -0.02314383 
   46000    340.03041    451.04239    181.92266    180.92368    166.28196    5224.9902      27.0546      59.6399 8.9770175e-05 -0.020123471 0.00010251012 0.0047075578 
   47000    339.30015    450.20677   -107.32166   -108.01071    1.1234966    5048.9675      27.0546      59.6399 -0.00054874121   0.02725784 -0.00049373981 -0.046440342 
   48000    337.39769    447.79553    59.446951    59.023311    265.77839    5285.3191      27.0546      59.6399 0.00039919439  0.016747395 -0.0011038939  0.022696579 
   49000    335.26602    445.06342    88.948138     88.75166    191.18836    5179.0156      27.0546      59.6399 0.00017476029 -0.0039506687 -0.00012617976  0.024518205 
   50000    341.11476    452.40423    150.36642    149.18729    84.201476    5159.0418      27.0546      59.6399 -0.00015820532 -0.013602645 -0.00078302332 0.0084235602 
   51000    343.17813    455.34313    12.038853    11.320607    265.81935    5371.3569      27.0546      59.6399 0.00053690417  0.012783653 -0.00045110835  -0.01467275 
   52000    342.28808    454.42937   -332.04705   -332.14539    387.75483     5480.051      27.0546      59.6399 -0.00066264317 0.0060036558 -0.00012440549 -0.016606981 
   53000    342.55863    454.36634    -108.3047   -109.37973    334.61683     5430.938      27.0546      59.6399 -0.00016272846  0.043123612 -0.00026447457 -0.0084206909 
   54000    344.80148    457.56553    77.645805    77.082552     392.5943    5522.2827      27.0546      59.6399 0.00022627611 -0.0091838344 -0.00038518057 -0.00082412139 
   55000    340.39429    451.81212      176.811    176.47496    360.56645    5424.6881      27.0546      59.6399 -0.00067146595  0.050254169 -0.00055086805 0.00045710683 
   56000    334.93815    444.70652   -195.22125   -195.23633    368.83996    5351.7895      27.0546      59.6399 -0.00042253816 -0.024138642 -0.00013224742  0.030742377 
   57000     343.0272    455.20017     262.0065    261.42113     387.5845    5490.8766      27.0546      59.6399 -0.00071396112 -0.0079095692 -7.1081458e-05 -0.0067182828 
   58000    335.44753    445.38867    65.806104     65.80448    414.84926     5405.377      27.0546      59.6399 -0.0007747801  0.057688518 -0.00011255838  0.012880602 
   59000     337.6615     448.3179    77.686546    77.660978    435.97932    5459.4448      27.0546      59.6399 0.0010607819   0.01849335 0.00042538043 -0.0032749624 
   60000    339.09355    450.10632    47.869513    47.582603    426.27083    5471.0412      27.0546      59.6399 0.00041099739 -0.0092674636 -1.1082316e-05 -0.012910433 
   61000    333.41894    442.69373   -382.92907   -382.93413    330.95032    5291.2983      27.0546      59.6399 -0.00086986645  0.015137037 0.00013225526 0.0098606055 
   62000    340.62243    452.23342   -202.72389    -202.7861    442.27984    5509.7957      27.0546      59.6399 -0.00010214756 0.0053953284 0.00036575891 0.0022724873 
   63000    346.56497    460.04212    13.662971    13.412256      468.065    5623.9893      27.0546      59.6399 -0.00013760032   0.03642559 0.00026536745  0.013497452 
   64000    343.53139    456.11589   -464.61715   -464.63285    477.90221    5588.6952      27.0546      59.6399 0.00016705241 -0.010326797 -0.0003507885 0.0017013683 
   65000     346.2967    459.77296   -52.513626   -52.563031    415.05856    5566.9918      27.0546      59.6399 -1.3125145e-05 -0.019917563 -0.00081729465  0.030122837 
   66000    338.05269    448.83298   -42.963772   -42.999354    493.98532    5523.2706      27.0546      59.6399 0.00042243186  0.019026395  0.000120155  0.028065465 
   67000    338.99365    449.96123   -280.11452   -280.43021    436.83363    5480.1177      27.0546      59.6399 0.00081822468 0.0044269741 -0.00032209903 -0.0066487187 
   68000    333.74131    443.04703   -110.04278   -110.22064    494.78853    5459.9324      27.0546      59.6399 -0.00064522961 0.0072968296 0.00013129303  0.016790741 
   69000    333.94612    443.00468    62.330749    61.425899    503.08468    5471.2755      27.0546      59.6399 2.7312055e-05  0.010481381 0.00034401345 -0.011681822 
   70000    334.12743    443.37593    56.014628    55.411675    410.70143    5381.5897      27.0546      59.6399 4.384127e-05 -0.0053588573 0.00023271702  0.052866231 
   71000    337.54988      447.797    412.62245    411.73483    351.92637    5373.7311      27.0546      59.6399 -5.0038331e-05  0.013330199 0.00054467238  0.015553098 
   72000    350.78308    465.63335    35.575766    35.303436    471.45225    5690.1303      27.0546      59.6399 0.00089420847 -0.012801949 0.00028478958 -0.012097225 
   73000    338.44741    449.00523   -81.943343   -82.792722    389.13974    5424.2973      27.0546      59.6399 -0.00033720568 0.0079266235 -0.00054649437    0.0106639 
   74000    337.36251    447.93094   -59.052655   -59.055043    397.53237    5416.5496      27.0546      59.6399 -0.00030865562 -0.011352277 -0.00052168358 0.0074952154 
   75000     334.8529    444.58825   -33.714072   -33.740899    341.40118    5323.0824      27.0546      59.6399 0.00013983172 -0.0062631241 4.0761212e-05 -0.027918331 
   76000    338.87574    449.62415   -256.27456   -257.00782    272.57319    5314.1031      27.0546      59.6399 -0.0001399459  0.018885321 -0.00028754788  0.023390409 
   77000    338.62432    449.55998   -132.05275   -132.16229    270.74604    5308.5356      27.0546      59.6399 -0.00013383994 -0.0069310635 -0.000548428 -0.0001975887 
   78000    332.89932    441.87716    30.820312    30.522332    288.54215    5241.1595      27.0546      59.6399 -0.00071498114  0.025092378 -0.00092897402 -0.016534559 
   79000    338.64955    449.11041    258.22636    256.99946    205.06229    5243.2271      27.0546      59.6399 -6.303451e-05 -0.022493543 0.0010836797   0.01194792 
   80000    341.29034    452.88491   -91.276134   -91.882684    226.76599    5304.2185      27.0546      59.6399 -2.1776164e-05 -0.025883173 0.00017819505 0.0052631146 
   81000    339.88713    451.14206    302.80431    302.47593    176.62792    5233.2046      27.0546      59.6399 0.00062869698  0.019723156 -0.00012143029 -0.0048234378 
   82000     342.2335    454.06654    4.0630091    3.2930444    100.68124    5192.1653      27.0546      59.6399 0.00035799514 -0.013254919 -5.3122622e-05 -0.013487734 
   83000    335.88679      445.837    251.13643    250.82279    95.672068    5092.7348      27.0546      59.6399 0.0010336865   0.03088822 -0.00037505491 -0.0092816347 
   84000    333.77048    443.00099    53.866826    53.492864    64.520571    5030.0984      27.0546      59.6399 0.00016619886 -0.018166491 0.00029553125 -0.004392976 
   85000    345.19116    458.23572    952.35815    952.14832    64.836142     5200.322      27.0546      59.6399 0.00024662931  0.022048881 0.00034242174 -0.0017935941 
   86000    338.44496    449.24673    86.613635    86.330357    17.029643    5052.1508      27.0546      59.6399 0.00056804479  0.014391348 0.00013399596 0.0091374867 
   87000     336.2154    446.40844    -120.0648   -120.06587    107.44772    5109.3992      27.0546      59.6399 8.3646037e-05  0.022930651 -0.00041772246 -0.00060998904 
   88000    341.53289    453.44459    409.77641    409.71954    73.590904    5154.6518      27.0546      59.6399 0.0016969149  0.051294887 -0.00067011771   0.01681622 
   89000    339.57288    450.82812   -76.959062   -77.048514    191.06327    5242.9648      27.0546      59.6399 -0.00045522485 0.0066073627 0.00072580482  0.014881828 
   90000    337.70708    448.38054   -222.89186   -222.91252    116.25048     5140.394      27.0546      59.6399 -0.0014130408  0.016545657 -0.00051406143 -0.025958607 
   91000    344.80984    457.81391   -204.11948   -204.13392    197.90981    5327.7227      27.0546      59.6399 -0.00058916277 -0.012098317 2.0775073e-06 0.0068903674 
   92000    343.84673    456.53287    -94.54236   -94.562047    149.41706    5264.9016      27.0546      59.6399 -0.00028042089 -0.0017755386 1.067518e-05 -0.0081390226 
   93000    340.84485    452.54736   -93.940285   -93.959423     48.99131    5119.8161      27.0546      59.6399 -0.00048048433 -0.0012874022 0.00054773648  0.022175465 
   94000    340.75348    452.38506    425.90245    425.78849    40.415566    5109.8811      27.0546      59.6399 -0.00039953896  0.030885301 0.00028733323 -0.0025018545 
   95000    338.43752    449.35383    53.411071    53.398392    132.34847    5167.3589      27.0546      59.6399 0.00066307667 -0.0025511294 0.00021705975  0.014372097 
   96000    342.73719    454.94991   -94.222634   -94.496235    25.344108    5124.3218      27.0546      59.6399 0.00032033508  0.010652906 0.00067029088 0.0020203216 
   97000    340.11045    451.48511    291.63558    291.41485    231.24913    5291.1481      27.0546      59.6399 -0.00058670839 -0.011134149 -0.00057128469 -0.00058989657 
   98000     330.1756     438.3436    87.696501    87.590137    138.23961    5050.3357      27.0546      59.6399 0.00023190228  0.019722402 -0.00032001583 -0.0018658286 
   99000     343.1521     455.5311   -135.60924   -135.81276    91.674653     5196.825      27.0546      59.6399 -0.0011252481  0.032357533 -0.00059104189 -0.00061505181 
  100000    336.72511    447.08541    229.85003    229.84943    185.99425    5195.5288      27.0546      59.6399 -0.0003743745   0.01611866 -0.00069779752 0.0047162458 
  101000    341.49123    453.39193    56.479831    56.429077    226.41107    5306.8523      27.0546      59.6399 0.00076229853    0.0275207 -0.00031989645  0.013719998 
  102000    339.66283    450.76095    33.606072    33.085036    76.735579    5129.9752      27.0546      59.6399 0.00060131028 -0.0061646587 0.00022776199  0.028832099 
  103000     342.3351    454.41308    280.73614    280.45572    165.65704    5258.6527      27.0546      59.6399 -0.00040281677  0.012133419 0.00068649498 -0.017106346 
  104000    341.73433    453.66485   -99.999521   -100.16558    150.50064    5234.5584      27.0546      59.6399 -0.00016347643  0.019332256 -0.0007193306  0.025751179 
  105000    337.57755    448.19136     136.0938    136.03335    294.41638    5316.6329      27.0546      59.6399 -0.00056181512  0.035655157 -0.00023573692   0.02648946 
  106000     344.9405    457.99147   -135.72152   -135.72653    195.66051    5327.4173      27.0546      59.6399 -0.00055161471  0.019648608 0.00074646762 -0.0065998308 
  107000    335.80225    445.85926    63.084277    63.081792    278.74126    5274.5461      27.0546      59.6399 3.5190748e-05  0.016664522 -0.00098157519 0.0038766373 
  108000     336.4858    446.76666   -294.16528   -294.16822    251.10802    5257.0823      27.0546      59.6399 -6.7655605e-05 0.0012049252 -0.00078318918 0.0021111687 
  109000     335.5638     445.5184   -107.06075   -107.11934     254.6088    5246.8662      27.0546      59.6399 -0.00014810882  0.024510111 -0.00021271844  -0.01826042 
  110000    343.44871    455.84438   -59.413299   -59.803103    299.41504     5408.978      27.0546      59.6399 0.00016863162 0.0011421676 0.00020913873 -0.00021081773 
  111000     340.8946    452.61336   -302.62025   -302.63953     298.0257    5369.5907      27.0546      59.6399 -0.00065676622  0.039096893 -0.00082194925 0.0087145138 
  112000    334.35411    443.87242    33.423951    33.273237    256.83943       5231.1      27.0546      59.6399  0.000133244  0.008851771 9.0318732e-05 -0.0028046638 
  113000     342.8035    455.11316    81.235251    81.135627    317.80712    5417.7712      27.0546      59.6399 -0.00034849839 -0.009955616 0.00081782997 0.0021107897 
  114000    348.62404    462.82795    218.96283    218.83218    270.40415    5456.9617      27.0546      59.6399 0.00010896533 -0.0052959349 -1.4250875e-05 -0.0097583261 
  115000      333.917    443.35714    127.24794    127.24778    301.49616    5269.2538      27.0546      59.6399 -0.00061737796   0.03126618 -0.00026320932  0.053979609 
  116000     337.6619    448.24002    426.50455    426.29759    187.80391    5211.2753      27.0546      59.6399 -0.00038969025   0.02492401 -3.8480547e-05 -0.025999114 
  117000    340.12231    451.59627   -236.81619   -236.81623    233.56659     5293.642      27.0546      59.6399 0.00027990951  0.025179692 0.00055339513 -0.00064753876 
  118000     339.1623     450.2421   -104.20116   -104.38512    265.04464    5310.8377      27.0546      59.6399 -0.0016336306 -0.001353223 0.00015953191 -0.008779619 
  119000    326.78016    433.86306    89.610913    89.568746    252.12108    5113.7023      27.0546      59.6399 0.0010372997  0.017014696 0.00026696721 0.0010290317 
  120000    347.65114    461.58959   -396.56626    -396.5734    236.90347    5408.9871      27.0546      59.6399 -7.6636351e-05  0.038804489 -0.00055627671 -0.026208515 
  121000    344.60408    457.54072   -55.360899   -55.375293    250.77154    5377.5233      27.0546      59.6399 -0.00069585508 -0.023905186 -0.00019394932 -0.012180383 
  122000     342.8123    455.15463   -475.20155   -475.23226    242.72134    5342.8163      27.0546      59.6399 -0.00045174877 -0.010942644 -0.00013331048  0.010812177 
  123000    339.85501    451.19501    134.76024    134.65297    335.01969    5391.1185      27.0546      59.6399 -2.4416154e-05 -0.035517036 -1.883079e-05  0.017193465 
  124000    334.05777    443.52177   -403.50781   -403.55949    312.95349    5282.8054      27.0546      59.6399 -0.00025409406 -0.012295848 0.00036148325  0.023041063 
  125000    344.70567    457.67917   -16.497033   -16.503167    362.02786    5490.2909      27.0546      59.6399 -0.0002572492  0.011488219 -0.00089839001  0.023336699 
  126000    339.88395    451.20426   -641.47032   -641.64507    189.63592    5246.1652      27.0546      59.6399 -0.00025929307 -0.0032285398 0.00052508748 -0.0038651602 
  127000    339.87304    451.25213   -90.579759    -90.61027    113.50286    5169.8699      27.0546      59.6399 7.0266856e-05 0.0013565583 0.00076190424 0.0067958462 
  128000    336.38851    446.51471   -61.135931   -61.422827    241.56315    5246.0899      27.0546      59.6399 0.00032696102 0.0063407521 -0.0005622989 0.0071488415 
  129000    336.19455    446.16393   -276.48205   -276.98465    253.27902    5254.9203      27.0546      59.6399 0.00019019102 -0.00056463337 -0.0003410988 -0.028275998 
  130000    341.95396    453.94885   -302.23996   -302.42363    278.10548    5365.4308      27.0546      59.6399 0.00017371771  0.028038468 0.00096541248 -0.0028685043 
  131000    333.27229    442.37628    71.177655    70.888728     120.9075    5079.0736      27.0546      59.6399 0.0004352895  0.016579943 -0.00053420501 0.0031818981 
  132000    342.98273    455.37719    40.163073    40.123715    270.08411    5372.7147      27.0546      59.6399 -0.00024782628 0.0037108497 0.00041762284 -0.0099969544 
  133000    337.97713    448.74354    269.59785    269.58744    213.62724    5241.7884      27.0546      59.6399 -0.0006331813  0.025882075 0.00018711427  0.014321413 
  134000    339.33354    450.54836   -433.85914   -433.86062    157.59029     5205.931      27.0546      59.6399 -0.00023858495 -0.012663822 -0.00030985082 0.0028852471 
  135000    333.47247    442.73901    -113.6754    -113.7401    118.76881    5079.9131      27.0546      59.6399 -0.00039337193  0.055429054 0.00083104873  0.051390458 
  136000    344.56313     457.4841    153.68906    153.66944    227.77403    5353.9166      27.0546      59.6399 0.00012857527 -0.0070660904 -0.00023280647 0.0053964752 
  137000    338.16308    448.99469    160.48722    160.48667    207.14348     5238.071      27.0546      59.6399 -2.4801599e-05 0.0047069713 5.9191918e-05  -0.00715285 
  138000    344.19392    456.65619    79.606268    78.805556     244.0425    5364.6922      27.0546      59.6399 0.0011640765  0.012481286 0.0010165182  0.014663495 
  139000    346.64647    459.97939   -183.41454   -184.06064    279.52402    5436.6608      27.0546      59.6399 3.4383948e-05  0.011692041 -7.514219e-05 -0.009045207 
  140000    347.65969    461.25927   -382.60953   -383.40697    14.420586    5186.6314      27.0546      59.6399 -2.8265072e-05 -0.022791819 -0.00047075945 -0.006020595 
  141000    348.11908    462.11675    415.97088    415.74601    131.51566    5310.5608      27.0546      59.6399 0.00024441707  0.010472704 -2.6072592e-05 -0.030390337 
  142000    337.58645     448.2293     423.2124    423.21239    102.82392    5125.1728      27.0546      59.6399 0.00031646033  0.045361745 -0.00037046729 -0.012735024 
  143000    346.87522    460.55756    266.19184    266.18055   -9.1073128    5151.4327      27.0546      59.6399 6.7203334e-05 0.00051839192 0.00039515215 -0.012585625 
  144000    337.35322    447.90341    422.23827    422.20075     202.1327    5221.0118      27.0546      59.6399 -0.00017487581 0.0072035394 -0.00036848486  0.011510663 
  145000    330.83633    439.25776   -150.11907   -150.14011    47.696094    4969.6219      27.0546      59.6399 0.00030865184 0.0067354073 0.00019165326  0.035576045 
  146000    340.82192    452.47493    612.27708    612.16082    102.55426    5173.0379      27.0546      59.6399 1.2592761e-06  -0.01358474 -0.0005653357 -0.014762994 
  147000    343.70588    456.29368    166.48453    166.34417    132.42871    5245.8177      27.0546      59.6399 -0.00045406092 -0.0018707097 -0.00050376298 -0.0026127366 
  148000    338.88915    449.93765     54.81392    54.764607    110.05083    5151.7803      27.0546      59.6399 0.00012911376 -0.0048176031 -0.00024590663 0.0070714053 
  149000    335.83894    445.90026    151.14285    151.12249    118.70057    5115.0514      27.0546      59.6399 0.00050860345  0.016892625 0.0003516361 -0.014205063 
  150000    340.73177    452.34196    254.68256    254.53561    25.508635    5094.6511      27.0546      59.6399 -0.00021970364 -0.028635167 8.3789351e-05 -0.007679203 
  151000    332.37018    441.26622   -392.09845   -392.18451    147.04923    5091.7945      27.0546      59.6399 -0.00012929492 0.0025889078 8.6445374e-05 -0.009767688 
  152000    340.01463     451.4222    42.831781      42.7598     32.69021    5091.1637      27.0546      59.6399 -0.00022206496 -0.0065334956 0.00056475587 0.0027032105 
  153000    342.76523    455.08385    19.226297     19.17641    185.54997    5284.9447      27.0546      59.6399 0.00037486747 0.0074805782 0.0001891897 -0.024301026 
  154000    341.27582    453.12027    64.885889    64.868333   -1.2518356    5075.9846      27.0546      59.6399 -0.00011321614  0.012380805 -0.00013442557 -0.016766827 
  155000    335.65568    445.64575   -63.693653   -63.739877    217.52585    5211.1502      27.0546      59.6399 0.00056795144 -0.011304105 0.00033585301 0.0022542834 
  156000     336.1283    446.27814   -336.99185   -337.02681      65.3413     5065.997      27.0546      59.6399 -0.0022855206  0.020141047 0.00011619591 -0.025963171 
  157000    340.29716    451.75626    193.74544    193.57849    80.652541    5143.3292      27.0546      59.6399 0.00014382178  0.018555348 -4.2054033e-05 0.0079518335 
  158000    336.93766    447.24639   -225.48433   -225.76533    230.09556    5242.7922      27.0546      59.6399 -0.00069881033 -0.0083824919 -7.8420186e-05 -0.0025000351 
  159000     343.5851    456.17725   -97.666578   -97.705311    287.44979    5399.0419      27.0546      59.6399 0.00051913657  0.012693612 -3.9457278e-05 0.00048049304 
  160000    336.29438    446.47064   -70.745573   -70.845318    199.75732    5202.8837      27.0546      59.6399 -0.00089375611  0.019129424 -2.0023982e-05 -0.0035954129 
  161000    346.92133    460.60069   -96.386762   -96.439903    154.29844    5315.5244      27.0546      59.6399 -4.8268522e-05 -0.0042226641 -0.00027652443  0.040993984 
  162000    340.62844    452.07029    175.06805    174.61003    247.76544    5315.3707      27.0546      59.6399 0.00030122143 0.0060422483 -8.5068047e-05 -0.0078119663 
  163000    334.74715    444.43914   -114.64667   -114.69359     197.0995    5177.2074      27.0546      59.6399 0.0010330131 -0.0086237561 -0.00060079196  0.022253798 
  164000    339.21286    450.20521    29.291673    28.867098    256.75728    5303.3026      27.0546      59.6399 0.00044814799    0.0045531 -0.00016447388 -0.043986297 
  165000    337.08064    447.52659   -220.90021   -220.97221     93.30757    5108.1314      27.0546      59.6399 -5.2653225e-05 -0.0012690622 0.00021608995  -0.02930172 
  166000    340.94688    452.68052    181.46181    181.43733    90.554853    5162.8976      27.0546      59.6399 0.00076387642 -0.0085242546 0.00039192425  -0.01293337 
  167000    340.52894    452.13569    267.79256    267.79139    176.27144    5242.3965      27.0546      59.6399 -6.9537549e-05  0.049199507 -0.00025828097  0.013655399 
  168000    346.65376    460.21759    218.91896    218.80143    188.58924    5345.8346      27.0546      59.6399 -0.00030017379  0.010911054 0.00024206986 -0.027708937 
  169000    342.19682    454.30414     159.8655    159.75778    175.04739    5265.9857      27.0546      59.6399 0.00056266894 -0.015704458 0.00052090937 0.0029491346 
  170000    342.44826    454.68455    164.14296    164.14294     258.6923    5353.3714      27.0546      59.6399 0.00013933664 0.0019497459 0.00040346788    0.0224704 
  171000    338.79613    449.81826    -249.7812   -249.82098    300.44225    5340.7878      27.0546      59.6399 -0.00053291704 -0.010297956 -0.00066812255  0.016218401 
  172000    336.27988    446.45404   -225.55175   -225.64539    313.24918      5316.16      27.0546      59.6399 0.00017437314  0.042268557 -0.00035350615 -0.00039191785 
  173000    341.48506    453.38601    82.977022    82.931554     276.9256    5357.2749      27.0546      59.6399 -0.00036727983 0.0099131393 0.00017765798  0.022795412 
  174000    344.29343    457.03407    30.872684    30.640428    249.72608    5371.8562      27.0546      59.6399 0.0011485093  0.048811124 -0.00018034892 0.0035202774 
  175000    339.68805    451.01014   -9.3400584   -9.3621861    211.46643    5265.0813      27.0546      59.6399 0.00030657333 0.0031741908 -0.000855008  0.011208077 
  176000    341.74818    453.74728    85.793857    85.775915    151.04002    5235.3039      27.0546      59.6399 0.00028302424 -0.00097012317 0.00016802827  0.001536143 
  177000    337.63553      448.293   -145.69671   -145.70011    200.73144    5223.8105      27.0546      59.6399 -0.00043650587 0.0044586956 0.00058800158 -0.0052449561 
  178000    342.18451    454.32847    362.52639    362.51276    213.46274     5304.218      27.0546      59.6399 0.00019131662 -0.0083472099 -4.5645395e-06 -0.012444329 
  179000    339.20845    450.33419    471.80387    471.69119    206.65009    5253.1298      27.0546      59.6399 0.00035745536  0.019427442 3.2206745e-05  0.033004503 
  180000    335.75446    445.79183    246.82551    246.81383    247.60053    5242.6944      27.0546      59.6399 -0.00029000771  0.008862176 0.00040232456  0.006784932 
  181000    337.76838    448.46293    280.46418    280.44582     215.1558    5240.2113      27.0546      59.6399 0.00090737915 0.0018446135 -0.00020475433 -0.023273648 
  182000    335.60704    445.60115   -138.42812   -138.42813    338.26764    5331.1684      27.0546      59.6399 -0.00026457607  0.026252473 0.00020033727 0.0053716326 
  183000    334.44917    444.06378   -114.74621   -114.74624    204.49785    5180.1727      27.0546      59.6399 -0.0003745588 -0.004840458 -0.00066604029  0.023977218 
  184000    348.17807     462.2922     69.57411    69.573888     173.1979    5353.1207      27.0546      59.6399 -0.00038078552 0.0028331741 0.00010616391 0.0015280291 
  185000    342.82637    455.12115    49.208449    49.057067    351.05077    5451.3551      27.0546      59.6399 0.0010151952 -0.021355306 -0.00047510343  0.041748562 
  186000    350.69127    465.62531    247.68121    247.67223    288.45281     5505.765      27.0546      59.6399 2.1380027e-05 0.0027505368 0.0012810608 -0.0020142281 
  187000    340.94673    452.63194    66.692249    66.555847    251.89348     5324.234      27.0546      59.6399 0.00029123883  0.023884034 -0.00044196006 -0.031144823 
  188000    340.89489    452.61539     -200.594   -200.60946    233.74521    5305.3144      27.0546      59.6399 7.8891799e-05 -0.015460326 0.00011667842  0.017880109 
  189000    343.31972    455.81929     -125.303    -125.3547    358.35815    5466.0022      27.0546      59.6399 0.00079056125 0.0037049652 -0.00012230709  0.015906111 
  190000    343.79058    456.43347   -366.41891   -366.49606    253.53212    5368.1812      27.0546      59.6399 -9.3330975e-05 0.0067822831 0.00020338014 -0.015988903 
  191000    346.65568    460.24737    258.89031    258.83575    306.05282    5463.3267      27.0546      59.6399 0.0011926036  0.033222082 -0.00011672432 -0.014062746 
  192000    341.62659    453.54344     54.81266    54.696634    266.54197     5348.997      27.0546      59.6399 -0.0004774196 0.0059831862 0.00030360714  0.015176232 
  193000    342.29558    454.47774    77.711393    77.701924     180.6052    5273.0128      27.0546      59.6399 0.00026703132 -0.024360564 -2.8886609e-05 0.0023463722 
  194000    333.81959    443.21653     -241.467   -241.49322    167.60372    5133.9122      27.0546      59.6399 0.00054588963  0.018153861 -8.8438496e-06 0.0027551564 
  195000    337.01288    447.46248   -113.74462   -113.75683    169.87848    5183.6942      27.0546      59.6399 0.00067372016  0.028393733 0.00027148683  0.053111186 
  196000    336.82522    447.18281    90.438669    90.355897    282.50205     5293.526      27.0546      59.6399 -0.00023394045 -0.018700076 0.00049999172 0.0013107362 
  197000     353.8239    469.59004   -35.705912   -36.165039    179.31573    5443.2328      27.0546      59.6399 -0.00033989829 0.0064524453 -0.0006048792 -0.016467643 
  198000    339.65211    450.90535    198.16971    198.01559    326.72096    5379.8011      27.0546      59.6399 -0.00057896485 -0.0081417118 0.00037487901 -0.0099870731 
  199000    337.34683    447.78937    8.0807826    7.7990901    271.48481    5290.2689      27.0546      59.6399 0.00011476122  0.008780849 0.00053943192 0.0049677793 
  200000    332.13613    440.99226    273.03956    273.03861    188.16604    5129.4293      27.0546      59.6399 0.00044400304 -0.0027682445 -0.00030241594 -0.021328077 
  201000    335.99347    446.11379    26.614364    26.613337    198.59032    5197.2401      27.0546      59.6399 0.00074339132  0.036281354 0.00034910072 -0.0041119505 
  202000    346.15428    459.60215    -20.33641   -20.343493    153.53773    5303.3521      27.0546      59.6399 -0.00035202422 0.0054162425 0.00041554648  0.019181949 
  203000    340.76579    452.39889   -49.934462   -50.054218    313.48794    5383.1365      27.0546      59.6399 -0.00017447117 -0.0088710674 -0.00011376794 -0.0032151344 
  204000     336.5461    446.81318   -20.605741   -20.686236    215.18909    5222.0604      27.0546      59.6399 -1.2123416e-05 -0.033405915 0.00013092107 -0.017191111 
  205000    346.38952    459.91661   -100.36609   -100.36828    233.94626    5387.2604      27.0546      59.6399 -9.8487642e-05 0.0048914771 0.00021656748 -0.0065073158 
  206000    346.88654    460.53428   -1.2550458   -1.3549612    151.77392    5312.4824      27.0546      59.6399 8.3080286e-05  0.022287872 -0.00038103986 -0.015208649 
  207000     339.2839    450.45291    116.97981    116.90998    230.84972     5278.452      27.0546      59.6399 -5.2374126e-05 -0.027483338 -0.00023521796 -0.020806605 
  208000    340.48002    452.05053    6.2174876    6.1695952    66.770664    5132.1678      27.0546      59.6399 0.00013932631 -0.016027171 0.00038211567 -0.024672254 
  209000    344.99906     458.0212   -101.88824   -102.00429    217.74127    5350.3692      27.0546      59.6399 0.00019700887 -0.012560763 0.00013285773   0.01338395 
  210000    342.33942    454.52992   -342.03609    -342.0595    104.93472    5197.9945      27.0546      59.6399 0.00047808969 0.0093583019 0.00023219251 -0.011701361 
  211000    344.45556     457.3455    88.120746    88.110921    197.26201    5321.8041      27.0546      59.6399 -8.0501812e-05 -0.0084662994 -0.00016626258 0.0014944311 
  212000    343.89531    456.57367    102.37486    102.30036    130.01864    5246.2258      27.0546      59.6399 0.00023107069  0.017958978 -0.0008934494 -0.0039977741 
  213000    337.75146    448.44838    201.40402    201.40397    133.04156    5157.8453      27.0546      59.6399 0.00032881445 -0.0052155371 0.0002410636 0.0013108985 
  214000    342.77495     455.0478    39.598179     39.43504     181.9596     5281.499      27.0546      59.6399 -5.4084004e-05 -0.0017964559 0.0014006149 0.0039728974 
  215000    338.71967    449.70375   -113.77394   -113.84377    181.71167    5220.9197      27.0546      59.6399 0.0011682644 0.0082402014 -0.00017339756  0.011559791 
  216000    338.79085    449.79933   -179.03873   -179.10608    310.22788    5350.4949      27.0546      59.6399 -4.7241157e-05  0.015393068 0.00035457447 -0.013638202 
  217000    339.70922    451.04616   -69.906895   -69.910702    211.90195    5265.8318      27.0546      59.6399 -4.8767872e-05 0.0015540073 -0.00046891866 0.0060386705 
  218000    330.98044    439.42217   -121.98874   -122.07208    186.83278    5110.9026      27.0546      59.6399 0.00072896504 -0.019607188 -0.00080248791  0.002421093 
  219000    335.83301    445.87012    158.22744    158.15559    165.45337     5161.716      27.0546      59.6399 0.00036540631  0.011153545 -0.00055484486   0.01936179 
  220000    344.36231    457.14692    78.390713     78.20795     244.0126    5367.1674      27.0546      59.6399 0.00064819024 -0.017541955 0.00047056818  0.030959674 
  221000    346.36077    459.79477    88.929815    88.734102    124.67353    5277.5599      27.0546      59.6399 0.00015866283 -0.011239943 6.6064387e-05  0.036344794 
  222000    339.52961    450.55134    239.86851    239.27176     169.2958    5220.5535      27.0546      59.6399 -8.4511566e-05  0.022401853 -0.00015536312 -0.009256623 
  223000    344.96567    457.97081    290.93032    290.80026    207.56831    5339.6995      27.0546      59.6399 0.00049769583 -0.016406649  0.000223187 0.00051697207 
  224000    337.85507    448.53782   -179.20471   -179.31608    205.22454    5231.5698      27.0546      59.6399 0.00026451111   0.03049595 -5.9579389e-05 0.0035813683 
  225000    335.38764    445.09989   -74.928735   -75.414374    191.22359    5180.8603      27.0546      59.6399 0.0012120461 0.0068998575 -0.00058936519  0.042878431 
  226000    341.03891    452.76269   -31.055714   -31.172776    300.36458    5374.0765      27.0546      59.6399 0.00012230919  0.017951306 0.00034638354 0.0027962289 
  227000    338.05408    448.77828   -244.94267   -245.10904    335.78807    5365.0941      27.0546      59.6399 -0.0003016378  0.018010866 0.00051124481 0.0092260918 
  228000    340.43027    452.00509   -160.21419    -160.2144    341.81837    5406.4754      27.0546      59.6399 -0.00028682066 0.0090976006 0.0013364515  0.036798759 
  229000    343.19267    455.66547    258.69368    258.67638    178.25184    5284.0058      27.0546      59.6399 9.8629579e-05 -0.0092374705 -0.00023149017 -0.0082915337 
  230000     339.3515    450.53766   -179.29271    -179.3741    261.24753    5309.8555      27.0546      59.6399 -0.00054727722 0.0020869895 -0.00010904929 -0.013779553 
  231000    346.75193    460.38576    260.77907    260.74902    262.21578    5420.9216      27.0546      59.6399 -0.00063555998 -0.001355225 0.00027558789  0.014892078 
  232000    338.61681    449.59591    293.73737      293.734    402.55068    5440.2285      27.0546      59.6399 -0.0004236966 -0.0041214783 -0.0010543208  0.018749249 
  233000    337.79774    448.44411    -145.2629   -145.41496    218.09762      5243.59      27.0546      59.6399 0.00026056624 -0.010848697 0.00025987948 -0.031905599 
  234000     337.4931     448.0927    66.308005    66.278706    182.10317    5203.0633      27.0546      59.6399 0.00035297991 -0.009830066 -0.0001858206 -0.00023848647 
  235000    336.75607    447.12655    -231.2287   -231.22923    226.74965    5236.7449      27.0546      59.6399 0.00029797729 0.0030065075 0.00033187404 0.0067313582 
  236000    338.77713    449.79918   -69.760394   -69.785966    281.48063    5321.5435      27.0546      59.6399 -0.00070289764  0.015328335 0.00039304303   0.03008534 
  237000    343.59869    456.21084   -258.43217   -258.43495    264.62481    5376.4191      27.0546      59.6399 8.5844874e-05 0.0033541048 -0.00029527504    0.0157408 
  238000    340.05731    451.50897    166.87804     166.8757    219.91418    5279.0226      27.0546      59.6399 -0.00021259047 -0.033339272 -0.00012821037  0.046239822 
  239000    332.24391    441.12922    113.24725    113.23211    105.37623    5048.2429      27.0546      59.6399 0.00095400975 0.0064466065 0.00016481972 -0.011463037 
  240000    341.73189    453.73256   -224.69828   -224.70025    263.22986    5347.2514      27.0546      59.6399 -0.00033795594 -0.0087890671 -0.00098478586 -0.0051345169 
  241000    344.18761    456.99375   -125.86023   -125.86076    297.73264    5418.2885      27.0546      59.6399 0.00050772963  0.029693988 -9.63156e-05  0.015787092 
  242000    338.98555    450.00814    164.64377    164.46146    270.03625    5313.1999      27.0546      59.6399 -0.00065978243 -0.0038326447 -1.4342602e-05 0.0038203657 
  243000    347.12057     460.8841   -25.376922   -25.386413    188.16779    5352.3579      27.0546      59.6399 0.0004040069 -0.0013350336 -0.00024444543 -0.013616554 
  244000    339.61592    450.90453    66.020125    65.975252    153.18042    5205.7222      27.0546      59.6399 -2.4962642e-05 0.0039514201 -0.00020717543  0.035036517 
  245000    331.79567    440.49685   -129.03587    -129.1371     220.6886    5156.8867      27.0546      59.6399 8.6358949e-05 0.0033835061 -0.00068745651 -0.023907959 
  246000    344.89246    457.90184   -390.82865   -390.89343    162.43375    5293.4758      27.0546      59.6399 8.5004651e-05 -0.016070109 -0.00029983529 0.0021176598 
  247000    340.21231    451.68296    1.1850016    1.1090742     165.9582    5227.3726      27.0546      59.6399 -0.00044513936 0.0060703322 -0.00057256694  -0.01727083 
  248000    339.56361    450.81436    378.64317    378.55039    197.77249     5249.536      27.0546      59.6399 -0.00044860327  0.029530441 -0.00011570143 -0.001025234 
  249000    338.98299    450.03144    12.008325    11.887753     225.2833    5268.4089      27.0546      59.6399 -0.00074309376 0.0029338981 0.00010448686  -0.01956774 
  250000    343.43084     455.7875    410.06258     409.5961    241.78869    5351.0858      27.0546      59.6399 -0.0003446711 -0.032209146 -8.8117974e-05  0.022028347 
  251000     341.8717    453.84179    55.672736     55.49407    212.35866    5298.4602      27.0546      59.6399 0.00053862313  0.016736685 0.00018787171  0.010016588 
  252000     345.1355    458.20198   -186.29543   -186.41237    30.594293    5165.2521      27.0546      59.6399 -0.00058696114  -0.01254974 0.00044159453 -0.023303526 
  253000    339.22484    450.31284    115.61249    115.40008    195.96463    5242.6882      27.0546      59.6399 0.00020880985 -0.0061176322 0.00097968968 -0.013128059 
  254000     344.7831     457.7293    230.18653    230.05853     156.1187    5285.5338      27.0546      59.6399 -0.00069249875  0.023491145 -0.00037107464 0.0016022044 
  255000    339.67376    451.00046   -222.82591   -222.82652    125.60118    5179.0034      27.0546      59.6399 0.00013358081 -0.0017181477 -0.00017218166 0.0078728438 
  256000    341.85225    453.87803    261.85142    261.81633    116.21977    5202.0319      27.0546      59.6399 0.00039460931 0.0095557403 0.00010000178 -0.013175125 
  257000    338.47105    449.38886    216.09237    216.05773    148.09672     5183.606      27.0546      59.6399 -0.00023921813  0.032722542 -7.0933675e-05  0.002573385 
  258000    344.50261    457.36841    8.7750179    8.6737036    114.10919    5239.3513      27.0546      59.6399 -0.00014908802  0.028698597 0.00099772087 7.2563765e-05 
  259000    340.43488    451.99561    47.290536    47.254261     38.60746     5103.333      27.0546      59.6399 -0.00027285077 -0.019378413 -5.3012866e-05 -0.001296264 
  260000    334.71072    444.41093    410.29441     410.2941    65.907211    5045.4732      27.0546      59.6399 -0.00013262783  0.002878449 2.5104763e-05  0.010126546 
  261000    341.12528    452.89522    45.156299    45.080521     157.0489    5232.0458      27.0546      59.6399 -0.00032021223 -0.022261753 -0.00010326868  0.021945872 
  262000    343.52448      456.084   -130.04679   -130.11504    27.697576    5138.3878      27.0546      59.6399 -1.3969158e-05 0.0099468835 -0.00017772243 -0.019506075 
  263000     332.1321     440.9129   -20.200445   -20.372569    93.071865    5034.2752      27.0546      59.6399 -0.00055316655 -0.00015270999 5.5575656e-05  0.023479866 
  264000    345.68233    458.94974   -89.156328   -89.223056    40.495232    5183.2883      27.0546      59.6399 -0.00033249725  0.013814092 -0.00017626842 0.0022115807 
  265000    344.26002    457.06954    125.00407    124.95646    66.234557    5187.8676      27.0546      59.6399 -0.00024501612 -0.0072975372 7.8475649e-05 -0.013025866 
  266000    338.54898    449.46771    27.672597    27.581024    4.6173489     5041.286      27.0546      59.6399 -0.00045372351 7.8146791e-06 -0.00046027767 -0.0098111602 
  267000    344.26096    457.04742   -372.00343   -372.10507    41.623866    5163.2709      27.0546      59.6399 -0.00055637624 0.0091419309 -0.00020458936 0.00028233921 
  268000    340.35826    451.70067    301.94767    301.46448    128.87797    5192.4636      27.0546      59.6399 0.00057522425 -0.017988885 -0.00047494119 -0.0083814494 
  269000    343.73951    456.38842   -5.0358834   -5.0603717    21.520662    5135.4099      27.0546      59.6399 -0.0002834883 0.0097524337 0.00019897537 -0.011065212 
  270000    330.93362    439.38891    312.92017    312.90371    189.71566    5113.0888      27.0546      59.6399 -0.00039828925  0.011938678 0.00071124591  0.030514216 
  271000    345.01967    457.84512    102.05579    101.46914   -5.8717396    5127.0628      27.0546      59.6399 0.00086973312  0.017209389 -5.4552229e-05 -0.0020598024 
  272000    335.34074    445.15527    302.69697    302.48346     83.08487    5072.0238      27.0546      59.6399 0.00060578002 -0.0081312981 -0.00033434134 4.5629356e-05 
  273000    344.15511    456.93586   -204.06955   -204.10418    204.05146    5324.1238      27.0546      59.6399 -0.00061985728 -0.011240605 -1.9835719e-05 -0.022050102 
  274000    352.41992    467.90345   -163.90887   -163.95733     141.1813    5384.2111      27.0546      59.6399 0.00055404613 0.0014795306 0.00061114131  0.021094903 
  275000     338.5937    449.45474    86.555798     86.29688    263.70349    5301.0374      27.0546      59.6399 0.00028631152 -0.0016984051 -9.5946717e-05 0.0036234182 
  276000    340.62004    452.23888   -324.34287   -324.38511    146.97383    5214.4541      27.0546      59.6399 -0.00055402987 -0.010523067 -0.0002084318  0.011111013 
  277000    338.50272    449.41286    6.4731068    6.3967196    167.05717    5203.0377      27.0546      59.6399 0.00041919701 -0.033534192 0.00057245844 0.0097805895 
  278000    340.95374    452.67954   -21.087105   -21.134945    320.70928    5393.1541      27.0546      59.6399 -0.00059755964 -0.028203089 -0.00028812345 -0.021632651 
  279000    332.01183    440.79717    182.90899    182.83855    243.85175    5183.2657      27.0546      59.6399 -0.00029922568 -0.0086798679 -0.00033910288 -0.0052499152 
  280000    348.76342     462.9597    43.675499    43.421536    248.71235    5437.3436      27.0546      59.6399 0.00083127355 0.0084801424 0.00040463311 -0.026216053 
  281000    337.57523     448.1962    204.22314    204.18101    207.43169    5229.6137      27.0546      59.6399 -4.8563042e-05   0.02215389 2.8624695e-06 -0.0095769627 
  282000    344.11088    456.88721   -84.756654   -84.767955    72.241747     5191.656      27.0546      59.6399 8.4899658e-05 -0.018034816 -0.00036764987 -0.010915836 
  283000    336.23853    446.42127   -65.669203    -65.71164    243.38952    5245.6851      27.0546      59.6399 -0.00015176207  0.046101171 0.00041506504 -0.0097572553 
  284000    337.12063    447.44503    281.38344    280.99998     123.5968    5139.0155      27.0546      59.6399 0.00052167785 -0.012669847 -0.00035427792   0.00126795 
  285000     341.3593    453.22396   -86.628396   -86.662511    200.61706    5279.0955      27.0546      59.6399 -0.00080229661  -0.01821284 -0.00012143293  0.030592902 
  286000    332.81788    441.87706    59.956789    59.908702    223.96741    5175.3732      27.0546      59.6399 0.00062102455 0.0089144165 0.00020570395 0.0046774837 
  287000    344.74298    457.73098    9.6388251    9.6379296    159.83638    5288.6546      27.0546      59.6399 -0.00034014885  0.025179398 -5.8280202e-05 -0.015347748 
  288000    335.41455    445.34541    126.73626    126.73585    339.42834    5329.4655      27.0546      59.6399 -0.00029329526 0.0069549825 -0.00073790339  0.013813754 
  289000    344.60061    457.51737    89.825308    89.767551    229.11359    5355.8137      27.0546      59.6399 -0.0006424664  0.015146308 0.00077784654 0.00049136174 
  290000    339.35844    450.58114    142.71139    142.70925     267.6244    5316.3356      27.0546      59.6399 -0.00086255701 -0.0064072755 -0.00024408365 -0.0091424472 
  291000    344.89278    457.93006    -155.0314   -155.03187    256.99423     5388.041      27.0546      59.6399 0.00028205777  0.034208834 0.0004494191  0.012962161 
  292000    340.95589    452.68542    255.60092     255.5601    147.57467    5220.0514      27.0546      59.6399 -0.00059380605 -0.00014367416 -0.00013986497 0.0015834698 
  293000    338.21454    449.06302   -86.357781   -86.358329    217.16986     5248.863      27.0546      59.6399 0.00028734805  0.011779135 -7.6936419e-05 -0.017290564 
  294000     341.7422    453.74171   -106.82083   -106.83328    168.83969    5253.0146      27.0546      59.6399 -0.00048623557 -0.017763155 0.0001630776 -0.001318233 
  295000    335.04237     444.7601    127.68549    127.47428    219.34697     5203.847      27.0546      59.6399 0.00048824827  0.026349669 -0.00029428567 0.0026441929 
  296000    344.68115    457.62965    79.434431    79.389032    214.00835    5341.9067      27.0546      59.6399 -0.0005044168  0.021667561 0.0003054212  0.022860386 
  297000    343.45529    456.02073   -375.03562   -375.03775    128.69731    5238.3583      27.0546      59.6399 0.00065163002  0.010175589 -0.00051471718  -0.01499808 
  298000    346.14456    459.59197   -82.725571   -82.726354    221.50546    5371.1752      27.0546      59.6399 -0.00035003636 -0.00078049909 -0.00015302721 -0.017027404 
  299000    342.69931    454.98488    108.77877    108.70241    169.50331    5267.9174      27.0546      59.6399 -0.00019310441  0.020422338 -0.00041006961 -0.0039301044 
  300000    346.61655    460.21845   -231.52077   -231.52202    294.78482    5451.4764      27.0546      59.6399 -2.9043553e-05 -0.0030832978 -0.00024468107   0.01203659 
  301000    342.29381     454.4112    493.30073    493.14276    238.72728    5331.1086      27.0546      59.6399 0.00020013148  0.010094031 0.00018066682  0.013245959 
  302000    342.79707    455.12285    45.872667    45.815208    257.58498    5357.4534      27.0546      59.6399 0.00085132529 -0.00034048588 -0.00033859866  0.011454739 
  303000    332.99558    442.11662    174.28448    174.24477    155.15017    5109.1996      27.0546      59.6399 -0.00025075604 -0.018368625 0.00025162224   0.02215617 
  304000    342.05831    454.13054    106.24061    106.15672    130.05187    5218.9296      27.0546      59.6399 0.00050836519  0.001506102 -0.00037586941 -0.0011661095 
  305000    336.98402    447.39641   -118.68914   -118.76553    269.94079    5283.3272      27.0546      59.6399 -0.00052464751 0.0029892077 3.7359449e-05 -0.0098212825 
  306000    343.05484    455.24636   -47.210837   -47.774262    203.56497    5307.2683      27.0546      59.6399 4.8942652e-05  0.014724119 -0.00043828828  0.012426001 
  307000    334.59005    444.24418    459.81594    459.80049    137.51904    5115.2899      27.0546      59.6399 0.0005271204  0.018464615 -0.00060712686 0.0075888896 
  308000     338.9596    450.01661    369.77738    369.69434    129.12229    5171.8999      27.0546      59.6399 0.00094565914 -0.0084203479 -0.00045860589 0.0080094601 
  309000    339.85657    451.20281     392.5889     392.4949    236.91209     5293.034      27.0546      59.6399 -0.00012130322  0.011525757 -0.00027954997 0.0042409299 
  310000    343.40943    455.96038    9.7716685    9.7708149     144.6125    5253.5912      27.0546      59.6399 -0.0004890964  0.030227233 4.3155071e-07 -0.017095419 
  311000    334.54228    444.16373   -152.87938   -152.93415    202.92221    5179.9822      27.0546      59.6399 -0.00057275192 -0.027722291 0.00017750063 -0.012263507 
  312000    336.52306    446.81595     17.78406    17.780727    148.37829    5154.9068      27.0546      59.6399 3.4015797e-05 -0.0029182799 -0.00057167824 -0.0096201882 
  313000    345.23628    458.38631    40.207202    40.207109    175.60563    5311.7628      27.0546      59.6399 0.00018589702 -0.0067984015 -6.8995463e-06  0.018211351 
  314000    337.70802    448.32832    254.38295     254.2386    174.28859    5198.4461      27.0546      59.6399 0.00084072744  0.022289076 -0.00036694262 0.0019013646 
  315000    340.79306     452.4476    70.893389    70.802552    156.21298    5226.2673      27.0546      59.6399 -0.0005627837  0.031968994 0.00022357678 -0.012323938 
  316000    336.74888    447.11458   -39.618128   -39.624251    274.49128    5284.3794      27.0546      59.6399 0.00061997555 0.0020959009 -0.00023888078 -0.00048547817 
  317000    343.11446    455.50969   -63.457339   -63.594765    281.01194    5385.6022      27.0546      59.6399 -0.00025886188 0.00019551502 -4.7709765e-05   0.01299567 
  318000    339.94477    451.36013    41.767674    41.766688     197.4816    5254.9157      27.0546      59.6399 0.00024330265 -0.019283974 0.00059643923 0.0053915171 
  319000    347.44961      461.301   -313.07036   -313.12607    236.91619    5406.0015      27.0546      59.6399 -0.00031467606  -0.01796524 0.00019414193 -0.013272368 
  320000    346.17046     459.6222   -78.285809   -78.296224    201.43018    5351.4853      27.0546      59.6399 -0.00047994635 -0.0072100903 -0.00011731238 -0.018895248 
  321000    343.74013    456.38167   -498.56763   -498.60967    181.53397    5295.4326      27.0546      59.6399 -9.1457563e-05  0.017086896 -0.00033594951 0.0020035506 
  322000    343.06623    455.49541   -89.990217   -90.012546    143.68602    5247.5588      27.0546      59.6399 -0.00046877764 0.0016446225 3.4320397e-05 -0.027251711 
  323000    339.29431    450.49213    254.71863    254.70758    253.71612    5301.4731      27.0546      59.6399 0.0011730451 -0.022124651 0.00060940511  0.049272545 
  324000    342.16622    454.26442   -67.007156   -67.112783    287.95296    5378.4361      27.0546      59.6399 0.00087696859  0.020490579 -0.00032571208 -0.025431998 
  325000    333.72453    443.10158   -180.07696   -180.07714    252.98963    5217.8839      27.0546      59.6399 -0.00021438338 -0.0095457891 0.00037188922 -0.0081036095 
  326000    342.06888    454.16932   -507.12924   -507.15588    200.86635    5289.9013      27.0546      59.6399 -0.00033841122 0.0057043711 0.00028870118 0.0030670192 
  327000    342.22802    454.29885    -69.60341   -69.819182    193.87303    5285.2755      27.0546      59.6399 -0.00016406658  0.028433218 -8.8306698e-05 -0.0086015364 
  328000    348.61757    462.80801      344.552    344.39509    211.93144    5398.3928      27.0546      59.6399 0.00013527847  0.021292243 -0.00020745455   0.00976581 
  329000     345.5036    458.71084   -172.56266   -172.63306    124.08607    5264.2202      27.0546      59.6399 -0.00030918818  0.019814726 -8.0405776e-05 -0.0050005778 
  330000    342.38953    454.54231    8.6488783    8.5002083    93.118374    5186.9237      27.0546      59.6399 -0.00091116807 0.0071738159 -0.00013331578  0.016342898 
  331000    338.42471    449.20926   -94.366455   -94.674186    165.57648    5200.3963      27.0546      59.6399 0.00042105785 -0.0068657212 9.1758062e-05  -0.03806521 
  332000    339.71892    450.91679    30.227946     29.89511    312.49007    5366.5642      27.0546      59.6399 -0.0010386586  0.023072117 -0.00018306699 -0.0078549422 
  333000    339.87907    451.22686   -35.519031   -35.626505    287.93309    5344.3897      27.0546      59.6399 0.00031784458 -0.0038513411 0.00030626057 -0.043238415 
  334000    342.30108    454.48802   -308.38934   -308.39195    182.98623    5275.4758      27.0546      59.6399 -0.00019709144   0.03268593 -0.00041067388 -0.0026780239 
  335000    332.90825    442.01642    -161.2457   -161.24899    263.06215    5215.8125      27.0546      59.6399 -0.0013229811 0.0081723199 -2.4390514e-05 -0.019729659 
  336000    334.57665    444.16193    164.60417    164.43966    241.48461     5219.056      27.0546      59.6399 0.00063754469  0.046527334 -0.00031582481  0.011211373 
  337000    338.52807    449.47675    143.81986     143.8134    186.87781    5223.2354      27.0546      59.6399 0.00017006293  -0.01549208 -0.00031887369 -0.026728402 
  338000    341.26691    453.05359    351.10347    350.95906    264.45593    5341.5598      27.0546      59.6399 -2.0336658e-05 -0.0095323488 -0.00015589373 0.0020473833 
  339000    337.12581    447.59594    86.040277    85.989957    240.42365    5255.9195      27.0546      59.6399 0.00022771929  0.036627391 -0.00084628052  0.025851598 
  340000    342.26443    454.39894    13.084917    12.988821    467.02525    5558.9695      27.0546      59.6399 -0.0006416691  0.027881291 0.00066957925 0.00043355471 
  341000    336.02861    446.13868    344.90635    344.85497    276.52413    5275.6967      27.0546      59.6399 -0.00018168226  0.024583005 -0.00047886936 5.0266057e-05 
  342000    344.73942      457.616     72.16904    71.913124    192.82755    5321.5928      27.0546      59.6399 0.00012556794  0.012243335 0.00018809926 -0.0022734527 
  343000    334.96876    444.65493    110.71158    110.48317    184.75516      5168.16      27.0546      59.6399 -0.00043279488 -0.022259796 0.00048199275  0.010226397 
  344000    343.90932     456.6047    30.843012    30.797246    239.63526    5356.0509      27.0546      59.6399 0.00040559668   0.01007182 7.4572779e-05 0.0031825526 
  345000    335.19189    445.03889   -159.37035   -159.39591    321.38448     5308.109      27.0546      59.6399 -0.00045802228  0.022313333 -6.4675287e-05  -0.02568657 
  346000    340.54242    452.15076    83.234664    83.226951    281.62342     5347.949      27.0546      59.6399 0.00046024052 -0.0075644607 0.00037900509 -0.034869156 
  347000    345.12416     458.2334    140.17102    140.16161    95.274275    5229.7633      27.0546      59.6399 0.00032912166 -0.0089000436 -0.00021985527 -0.039302023 
  348000    340.93885    452.67662    35.879436    35.870582    120.08282    5192.3061      27.0546      59.6399 0.00019380871 -0.013297641 0.00084935351 -0.0021763764 
  349000      337.562    448.19657    17.586866    17.586223    190.61298    5212.5981      27.0546      59.6399 -0.00014810058 -0.007718998 -0.00063348694 -0.020505058 
  350000    339.51076    450.76767   -114.97204    -115.0105    193.13054    5244.1077      27.0546      59.6399 0.00043010552 0.0031337433 -0.00015672151 -0.014237044 
  351000    341.74315    453.59934   -312.15412   -312.49878    199.29841    5283.4874      27.0546      59.6399 -0.00050105276 0.0053192136 0.00033797232 -0.020768697 
  352000    336.61226    446.92204   -148.04088   -148.07281    239.24398    5247.0997      27.0546      59.6399 -0.00013616847 0.0072338489 0.00051742895 -0.0087838034 
  353000    342.56747    454.83825   -74.571515   -74.582133    208.02626    5304.4789      27.0546      59.6399 6.560228e-08 -0.028892481 -0.0010421237  0.012846235 
  354000    344.78302    457.76747   -137.96177   -138.00124    154.55974    5283.9736      27.0546      59.6399 0.00050221427 -0.00073655153 9.2532142e-05  0.028487461 
  355000    340.06125    451.48644    63.732927     63.66637     192.0546    5251.2216      27.0546      59.6399 0.00025109293 0.0019361588 -0.00010676368 0.0085730761 
  356000    336.71151    447.05082   -154.20209   -154.24092    277.04513    5286.3773      27.0546      59.6399 0.00035587154 0.0077589477 0.00050613403  0.007223132 
  357000    334.19037    443.66379   -9.4472443    -9.577669    229.55038    5201.3751      27.0546      59.6399 -0.00061053247 -0.018999817 0.00014572385 0.0018761229 
  358000     344.2792    457.08577    55.824446    55.755484    115.16435    5237.0828      27.0546      59.6399 -0.0011522726 0.0029530948 0.00013828609 -0.013006491 
  359000    337.78998    448.48049    65.606422     65.56235    160.23276    5185.6096      27.0546      59.6399 -0.00012836219  0.022696809 0.00019754899 -0.028522798 
  360000    337.05662    447.52339    137.59416    137.58851     103.4103    5117.8767      27.0546      59.6399 -0.00078764226  0.028794635 1.1274608e-05  0.048317113 
  361000    335.96156    446.04304   -162.39444    -162.4611    186.19477    5184.3698      27.0546      59.6399 0.0003978362 0.00073013285 -0.00033349618  0.011822721 
  362000    338.00714    448.74332   -154.91706   -155.02013    163.98984    5192.5974      27.0546      59.6399 -0.00043763814  0.013658735 -0.00055257676  0.034620334 
  363000    338.17611    449.01107    -59.57565   -59.578321     218.2545    5249.3759      27.0546      59.6399 0.00054966482 0.0026769875 0.00059702893  0.008506453 
  364000    338.60843    449.58012     220.8058    220.79162    255.66509    5293.2183      27.0546      59.6399 0.00014376618 -0.033747789 -0.00023866242 0.0050436733 
  365000    342.79386    455.14343   -61.499649   -61.499661    180.48928      5280.31      27.0546      59.6399 0.00063517527 -0.012530306 0.00010350496 0.0037833847 
  366000    339.10652    450.24567    156.55561     156.5512     146.3443    5191.3076      27.0546      59.6399 -0.00015449849 -0.00054995326 0.00017011755 -0.0023562203 
  367000    342.83799    455.19506    208.63031     208.6142     209.3744    5309.8516      27.0546      59.6399 0.00029868063 0.0007701641 -1.8501673e-05    0.0142707 
  368000    333.82565    443.22991   -102.89931   -102.91322    141.47434     5107.873      27.0546      59.6399 0.00037108129  0.037821621 -0.00063915011 -0.0082539969 
  369000    347.98219    462.03199   -115.04442   -115.04494    97.260772    5274.2693      27.0546      59.6399 0.00039651155 -0.010844215 -0.00030181011 0.0073442487 
  370000    346.22414    459.69597    89.416959    89.412337    129.44875    5280.3024      27.0546      59.6399 -0.00039322747 0.00074776477 0.00093986172 0.0096033202 
  371000    332.84515    441.93033   -81.769948   -81.778577    177.78556    5129.5971      27.0546      59.6399 -0.00085110693  0.051392534 0.00044155819  0.018311691 
  372000    344.57606    457.50963    -304.0592   -304.05945    121.35797    5247.6929      27.0546      59.6399 0.00039473452 -0.018170791 -6.4806164e-06 0.0037250408 
  373000    327.64089    434.98515   -111.38524   -111.47538    146.04025    5020.4268      27.0546      59.6399 -0.00015904707 -0.013091512 5.2561962e-05  0.012542244 
  374000    344.71471    457.63731   -81.000458   -81.131195    198.78834    5327.1859      27.0546      59.6399 -0.00019516543 0.0024175749 0.0012088452  0.031195629 
  375000    339.84965    451.19741   -341.38498   -341.47023    173.26837    5229.2874      27.0546      59.6399 -0.00054695755 0.0057098449 -0.00010197593 -0.015370801 
  376000     344.9915    458.04413   -230.94927   -230.98907    164.43321    5296.9486      27.0546      59.6399 0.0011065139 0.0071637476 9.0604252e-05 -0.0071961457 
  377000    346.34855     459.7977   -1.7745288   -1.9259452    147.11476    5299.8194      27.0546      59.6399 -0.0015909883  0.020988631 0.00057266019  0.054442409 
  378000    337.93258    448.68823   -148.29414   -148.29565    174.53181    5202.0302      27.0546      59.6399 0.00039041944  -0.01462905 -0.00015091901 -0.018170505 
  379000    341.78434    453.79518   -280.89054   -280.90873    248.40228    5333.2041      27.0546      59.6399 0.00072751537  0.015368981 -6.8975537e-05 -0.00038977653 
  380000    341.08473    452.72728   -41.920015   -42.259711    258.71074    5333.1044      27.0546      59.6399 0.00016591309 0.0029481579 0.00010974942 0.0047884535 
  381000     339.7042    450.88996    148.68587    148.33618     178.1264    5231.9815      27.0546      59.6399 0.00038146443  0.027935349 0.00028590229 -0.020992358 
  382000    346.04532    459.45203    15.384569    15.364872     168.5971    5316.7905      27.0546      59.6399 -0.00094348303 -0.0044530603 -0.00010271121 -0.00040531816 
  383000    337.92455    448.64416   -132.20629   -132.28509    255.08167    5282.4606      27.0546      59.6399 0.00014013365 -0.0056427648 -0.00044327666 -0.0048701725 
  384000     337.4899    448.09752    -150.9343   -150.94261    190.40535    5211.3178      27.0546      59.6399 -0.00016171778 -0.0045374507 8.8873725e-05  -0.01432743 
  385000    346.24422    459.62858   -61.395161   -61.617332     280.4943    5431.6467      27.0546      59.6399 -0.00012693808 -0.030568091 0.00025653978 -0.014698724 
  386000    340.27254    451.71259    39.167119    38.974746    290.84449     5353.155      27.0546      59.6399 0.00033639556 -0.005108672 -0.00034040012  0.015607018 
  387000    342.25457    454.39172    -199.2069   -199.28939    174.00264    5265.8001      27.0546      59.6399 -0.00053828213 -0.010325353 0.00019426198  -0.01138659 
  388000    335.72538    445.74125    53.231501    53.192113    312.66884    5307.3301      27.0546      59.6399 -0.00049154361  0.021633386 0.00060912392  -0.02721838 
  389000    342.50659     454.7616   -359.85247   -359.85342    259.51012     5355.057      27.0546      59.6399 -0.0003000492 -0.017797896 0.0010745076  0.031264965 
  390000    338.42237    449.33799   -53.580984   -53.583776    234.67522    5269.4603      27.0546      59.6399 -1.4811433e-05  0.010020827 -4.2841056e-05 -0.0020230612 
  391000    333.89183    443.30996    310.88873    310.85675    288.61915    5256.0023      27.0546      59.6399 0.00048996746 -0.0058169679 0.00052008449 -0.019713104 
  392000    335.42127    445.24486   -85.129655    -85.38325    212.90442    5203.0414      27.0546      59.6399 0.00032212173 -0.015353136 0.00011094005 -0.030103835 
  393000    334.83527    444.49865     117.9653    117.78538    293.24578    5274.6647      27.0546      59.6399 -0.00052446099  0.015262783 -5.1937939e-05 -0.011064704 
  394000    339.60585     450.8341   -59.599072   -59.775946    179.71432    5232.1063      27.0546      59.6399 0.00055390336  0.025142155 0.00040425001 -0.011379014 
  395000    339.82843     451.2027   -179.09883   -179.10669    248.86213    5304.5655      27.0546      59.6399 2.934976e-05 0.0024423126 7.4280158e-05  0.012425216 
  396000     342.3441    454.54612    60.243396    60.243077    365.13192    5458.2614      27.0546      59.6399 -0.00037634871  0.027492806 0.00058009873 -0.030988985 
  397000    340.19446    451.66825   -44.899387   -44.954516    254.88389    5316.0327      27.0546      59.6399 -0.00020852579 -0.013339773 0.00013472425 -0.017456372 
  398000    345.05597    458.14046   -232.11187   -232.12686    292.63081    5426.1055      27.0546      59.6399 0.00034748977 -0.018145712 -0.00040936823 -0.013867017 
  399000    343.87221     456.5629    165.35308    165.32461    212.09189    5327.9554      27.0546      59.6399 0.00044050213 0.0068132241 -7.0781009e-05 0.0058569571 
  400000    338.12394    448.93835    312.44856    312.43791    155.09173     5185.437      27.0546      59.6399 3.062087e-05 -0.008483618 0.00060379164  0.018746248 
  401000    336.73877    447.09377    240.27969    240.25648    169.40648    5179.1443      27.0546      59.6399 0.00086715355 -0.0042193387 -0.0005265256  0.014538573 
  402000    341.96345    454.04061   -6.9494137   -6.9499624    125.13673    5212.6031      27.0546      59.6399 -0.00013660277  0.025327846 0.00024639947  0.010127379 
  403000     337.5367    448.02078    287.22863    286.89908    122.23956    5143.8483      27.0546      59.6399 0.00015538473    0.0165025 -9.1070093e-05 -0.0028358746 
  404000    346.25086    459.73345    307.71574    307.71574    215.47244    5366.7237      27.0546      59.6399 0.00024325887  0.013879469 -0.0011093008   0.03428962 
  405000    334.08961    443.56457   -402.26012   -402.31057    201.13753    5171.4631      27.0546      59.6399 0.00018783524 -0.028414997 -0.00021380376 0.00085845198 
  406000    337.60211    448.22581    17.919445    17.863265    195.92898    5218.5108      27.0546      59.6399 6.2485826e-05 -0.012179265 0.00062363044  0.018415613 
  407000    335.32388    445.22511    85.102832    85.102646    239.77421    5228.4623      27.0546      59.6399 -0.00021868688 0.0013003371 0.00037928418 -0.013026253 
  408000    344.20669    456.97418   -280.37194   -280.47634    285.02298    5405.8627      27.0546      59.6399 -0.00066103438  0.015769079 -0.00039972078  -0.01218959 
  409000    336.83705    447.20083    31.587985    31.510556    148.29974    5159.4997      27.0546      59.6399 -0.00033795304  0.011342466 9.7337653e-05 -0.016259836 
  410000    338.40931    449.31706   -71.589577   -71.600694    257.52076    5292.1116      27.0546      59.6399 -0.000484874  0.010175074 5.0325238e-06 -0.010784541 
  411000    333.33817    442.58708   -18.997578   -19.001235    240.82628    5199.9725      27.0546      59.6399 0.00030889817 -0.0053104785 1.3099388e-05 0.0017709981 
  412000    338.95592    450.04711   -217.42063    -217.4218    174.34631    5217.0691      27.0546      59.6399 -0.00065990497   0.01987947 0.00012362441   0.01928752 
  413000    334.60907    444.26381   -133.86118    -133.8896    199.98967    5178.0434      27.0546      59.6399 0.0002099053 -0.0033654838 -0.00038677858 -0.028807768 
  414000    344.24502    457.06968      222.712     222.7108    209.75848    5331.1683      27.0546      59.6399 0.0002274412 -0.019598058 -6.5024468e-05 -0.019900667 
  415000    343.43909    455.99663    487.13245    487.12433     187.1449    5296.5649      27.0546      59.6399 -0.00012093758  0.010870151 0.00018357401 0.0020885556 
  416000    331.56998    440.23956    495.15195    495.14872    238.95293    5171.7934      27.0546      59.6399 -0.00032453438 -0.022342598 -7.2193947e-05 0.0053079218 
  417000    352.26332    467.71358    249.64599    249.63929    164.63531    5405.3353      27.0546      59.6399 0.00014327528 -0.036935845 -0.00057230942 -0.013437698 
  418000    349.57611    464.14563    75.895893    75.889151    156.42188    5357.1437      27.0546      59.6399 0.00026392539 -0.025229063 -0.00027822627 -0.0084480817 
  419000    342.32488    454.44013     336.4722    336.28574    112.33997    5205.1835      27.0546      59.6399 -0.00069835577 -0.019283046 -0.00010146021   0.04003431 
  420000     339.3118     450.5186    30.591295    30.587754    194.23952    5242.2568      27.0546      59.6399 0.00073068504 -0.0013775973 -0.00031110498 0.0084798423 
  421000    332.52841    441.51084    468.55794    468.55174    168.90418    5116.0035      27.0546      59.6399 -0.00074173968 0.0033385162 0.00016256034 -0.021550473 
  422000    337.88095    448.61198   -70.658279    -70.67758    193.39958    5220.1298      27.0546      59.6399 -0.00054234764 -0.0087208855 -0.00031042517  0.015860203 
  423000     333.0152    442.14722   -161.40404   -161.43325     222.1142    5176.4557      27.0546      59.6399 -5.6461192e-05  0.010416256 9.1702646e-05  0.011882625 
  424000    343.71341    456.36048   -248.77665   -248.78561    137.36831    5250.8693      27.0546      59.6399 -0.00045828102 0.0093586531 5.6703781e-05 -0.010409645 
  425000    336.44694    446.71631    -326.8664   -326.86645      151.917    5157.3132      27.0546      59.6399 -0.00029049941  0.023746065 -0.00026424168 -0.029199195 
  426000     346.4793    460.03476    158.64907    158.64444    168.60857    5323.2584      27.0546      59.6399 0.00056631668 -0.0011492218 0.00040079695 0.0097389576 
  427000    339.31259    450.52007    -5.865517    -5.868092    17.492881    5065.5219      27.0546      59.6399 -0.00017625231 0.0006259901 0.00013811169 0.0087809064 
  428000    336.65478    446.99186   -37.130497   -37.131477    149.84552    5158.3337      27.0546      59.6399 -0.00040507494 0.0027537183 -0.00027422205   0.01677807 
  429000    340.76274    452.22995    15.939599    15.438464    188.91704    5258.5202      27.0546      59.6399 -0.00027053206 -0.0072436589 -5.1355608e-05   0.01764216 
  430000    349.08842    463.48691     130.6391    130.60647    215.70355    5409.1698      27.0546      59.6399 -0.00026027099 -0.0031200753 0.00066394959  0.026172615 
  431000    337.12683    447.59594   -208.37118   -208.42464    167.86284    5183.3738      27.0546      59.6399 4.5484959e-05  0.019885364 0.00059421778  0.023892271 
  432000    337.93481    448.64792   -444.12121   -444.22281    285.86822    5313.3998      27.0546      59.6399 0.00091144541  0.009617787 0.00044546118  0.033628579 
  433000    339.34878    450.56916     28.00981    28.009616    136.32437    5184.8919      27.0546      59.6399 -0.00079245632 0.0034742549 9.0409583e-05  0.018646964 
  434000    331.43113    440.02438    117.43084    117.35631    138.50045    5069.2752      27.0546      59.6399 -2.877795e-06 0.0081241056 0.00079215234 -0.024061073 
  435000    338.21786    449.04059   -130.91025   -130.97285     223.6789    5255.4213      27.0546      59.6399 0.0003184953  0.015358178 0.00042861294  0.043254706 
  436000    345.99443    459.38975    232.33999    232.33252    175.19678    5322.6331      27.0546      59.6399 -0.00047056639 -0.0044323936 -7.6193722e-05 -0.0061523387 
  437000    339.42358    450.59159   -42.646415   -42.824432    67.016049    5116.6963      27.0546      59.6399 -0.00046720871   0.01631184 -2.2909366e-05 -0.012746396 
  438000    337.48305    448.08772    173.81917    173.80922    207.89383    5228.7045      27.0546      59.6399 0.00019179349  -0.01176004 -0.00046768584 -0.021368313 
  439000    337.28395    447.80559    26.368799    26.317737    241.52261    5259.3712      27.0546      59.6399 0.00011916986 -0.0042332446 0.0002207066 -0.038072422 
  440000    343.28575    455.79113    94.712291    94.699784    196.88855    5304.0272      27.0546      59.6399 -0.00019749661 -0.022477451 0.00018569968  0.016657326 
  441000    334.35862    443.91482   -279.15403   -279.22054    218.26904    5192.5969      27.0546      59.6399 -0.00015519989 -0.0035968286 0.00031683433 -0.019030606 
  442000    341.03405    452.80257    220.13569    220.12581    218.57418    5292.2137      27.0546      59.6399 0.00071409598 -0.0095851512 0.0010801565 -0.0044523413 
  443000    336.35757    446.59315    -461.2632   -461.27366    230.07819    5234.1447      27.0546      59.6399 0.00070621339  0.003643397 5.8432461e-05 -0.025682409 
  444000    337.58554     448.2274   -156.22209   -156.22373    295.53039    5317.8658      27.0546      59.6399 -0.00048047804  0.033310369 -0.00064899864 -0.0070127747 
[...]
 2893000    341.68886    453.67551   -436.35288   -436.35465    241.13026    5324.5116      27.0546      59.6399 0.0008214752   0.04020267 0.00064356118 0.0024501473 
 2894000     341.8126    453.75302    -24.18367   -24.386171    300.33041    5385.5527      27.0546      59.6399 0.0001638679 -0.013056478 0.00024714262  0.033996898 
 2895000    332.61565    441.53492   -297.40249   -297.62089    359.46017    5307.8573      27.0546      59.6399 0.00045073187 -0.005959566 -0.00022988275 0.0008191504 
 2896000    339.03404    450.14782    73.551574    73.543427    234.48482    5278.3698      27.0546      59.6399 0.00051411734  0.012551852 0.00094637943 -0.019228848 
 2897000    348.60196    462.85004    588.65348    588.64176    298.29565    5484.5247      27.0546      59.6399 -0.00013297825 0.0011239637 -0.00048520688 -0.013315149 
 2898000     338.5518    449.44481    16.812857    16.659654    298.88977    5335.6003      27.0546      59.6399 -8.5622723e-05 -0.016589512 0.00011317544 -0.030952433 
 2899000    341.66627     453.6454    6.2120988    6.2100742    307.21207    5390.2574      27.0546      59.6399 0.00056287996 -0.0035334511 0.00012938266 -0.010836834 
 2900000    340.59146    452.16144   -50.347559   -50.481169    204.40462    5271.4598      27.0546      59.6399 -6.2694405e-06  0.033204872 -0.00037453321 -0.00010351749 
 2901000    341.78883    453.80444    130.17848    130.16792     140.1475    5225.0161      27.0546      59.6399 -0.00025242698 -0.0087390675 0.0009176268  0.011631662 
 2902000    341.24479    453.02048    471.92236    471.76929    128.43017     5205.205      27.0546      59.6399 -0.00020661202 -0.018526694 0.00028889596 -0.0032714665 
 2903000      344.794    457.70474   -47.247002   -47.465263    151.52352    5281.1007      27.0546      59.6399 0.00018312585 0.0087108807 -0.00052604557  -0.02055149 
 2904000    343.08773    455.52972    80.522963    80.513959    278.95455    5383.1472      27.0546      59.6399 -0.00030328893 0.0076684342 0.00022365892 -0.027974416 
 2905000     335.9221    445.84824   -106.06919   -106.46526    136.90872    5134.4966      27.0546      59.6399 0.00084352536 -0.0037459074 -0.0002880615 -0.029925164 
 2906000    339.62609    450.93169    92.307138    92.293855    178.43557    5231.1287      27.0546      59.6399 0.00010431602 -0.015872762  0.000990959 0.0098654062 
 2907000     337.2563    447.75331    111.55693    111.46986    229.71935    5247.1565      27.0546      59.6399 0.00076867523  -0.01540509 -7.4433372e-05  0.023362005 
 2908000    336.34255     446.4217   -89.486761   -89.847662    122.28021    5126.1234      27.0546      59.6399 0.00066340457  0.031757503 -0.00083942875  0.020478279 
 2909000    340.08605    451.54812   -162.49059   -162.49066    195.41681    5254.9528      27.0546      59.6399 0.00029002346 -0.0063595146 -0.00053848213  0.041994404 
 2910000     343.5055    456.05614   -278.90578   -278.98019    72.834596    5183.2425      27.0546      59.6399 0.00016451881 0.0072762405 3.2209217e-05 0.0095885507 
 2911000    341.01032    452.77458   -145.89032   -145.89208    159.24862    5232.5352      27.0546      59.6399 -5.3060422e-05   0.01220358 0.00023498878   -0.0190747 
 2912000    339.50488    450.70716    162.31583    162.15544    210.23867    5261.1285      27.0546      59.6399 0.00025300508 0.0044205125 -0.00030285067  0.012121954 
 2913000    341.62097    453.55087    95.876371    95.794823    76.570321    5158.9416      27.0546      59.6399 -0.00017489544 -0.0096614896 0.00032247251 -0.015397876 
 2914000    335.85355    445.92539   -107.97215   -107.97924    79.509032    5076.0772      27.0546      59.6399 0.00012137787  0.031592892 -4.6862599e-05 -0.0060077507 
 2915000    337.66579    448.32179   -52.488504   -52.518273    231.63614    5255.1654      27.0546      59.6399 0.00074254017  0.018973071 0.00023284354 -0.011271292 
 2916000     336.1524    446.30768    81.269884    81.229229    44.523162    5045.5374      27.0546      59.6399 0.0001941252  0.013082991 -0.00019350756 -0.028978701 
 2917000    343.02837    455.43403    75.638199    75.590167    143.29155    5246.6011      27.0546      59.6399 -7.8470267e-05 -0.023565606 -0.00076637203 -0.0063591575 
 2918000    337.81676     448.5084     94.84305    94.781279    86.904441    5112.6797      27.0546      59.6399 -8.0439158e-05  0.014732678 -0.0002144434 0.0097215347 
 2919000    348.73098    462.98611    97.753279    97.660059    85.350686    5273.4992      27.0546      59.6399 0.00056398125 0.0016711187 -0.00096674582 -0.0031081708 
 2920000    342.41881    454.60434   -247.86037   -247.95548    152.11026    5246.3512      27.0546      59.6399 0.00045564512 0.0030050911 -0.00079878323  0.012781002 
 2921000    336.45797     446.7176    16.180231    16.149294    150.08815    5155.6484      27.0546      59.6399 -0.00032648691  0.021896315 7.0037416e-05  0.020834587 
 2922000    344.51827     457.3828   -232.38056   -232.49669    62.734627    5188.2097      27.0546      59.6399 -0.0010952853 0.00098111485 -0.00061991991 -0.020660627 
 2923000    343.08648    455.51786    391.45568    391.42306    158.50851    5262.6826      27.0546      59.6399 -8.6347498e-05 0.0045045513 0.00026511642 -0.0089044916 
 2924000    341.61122    453.52524    355.46033    355.34945    117.50499    5199.7313      27.0546      59.6399 -0.00028037838 -0.022197506 -0.00056230249  0.038704967 
 2925000    337.18754    447.69966    50.093293    50.093293    233.41272     5249.827      27.0546      59.6399 0.00016089566  -0.02659737 -0.00015722278 -0.011357365 
 2926000    343.94854    456.67432   -5.3787377   -5.3838921    300.18721    5417.1863      27.0546      59.6399 -6.572746e-05  0.048005635 0.00085966262 -0.020903453 
 2927000    336.48675    446.60992    337.43528    337.06688    149.06375    5155.0521      27.0546      59.6399 -0.00012111489  0.037337161 0.00052220586   0.01746565 
 2928000    339.31553    450.49078    41.831033    41.751677    159.36822     5207.441      27.0546      59.6399 -0.00054677973  0.027114701 0.00020341833  0.027342292 
 2929000    338.10721    448.78048    24.811382    24.486952    277.50943    5307.6058      27.0546      59.6399 -0.00042522708  0.013467296 3.4344495e-05 -0.0092542447 
 2930000    331.18419     439.6526    58.172201     57.99611    373.15739    5300.2585      27.0546      59.6399 0.00031598326 0.0013468655 2.0171565e-05 0.0045138772 
 2931000    328.96251    436.70754    177.62617    177.46112    261.29613    5155.3447      27.0546      59.6399  0.000246844 0.0048149204 -2.8962951e-05 -0.0029895708 
 2932000    342.72381    455.04948    85.721637    85.719438    269.34722    5368.1258      27.0546      59.6399 -0.00012486903 -0.010205746 0.00030136193 -0.0085642922 
 2933000    342.86981    455.24427   -102.46939   -102.46941    328.90011    5429.8507      27.0546      59.6399 0.00033290192 0.0097798078 -0.00045703822  0.010362336 
 2934000    343.43693    455.99363    143.97114    143.96274    306.59598    5415.9838      27.0546      59.6399 -7.7226903e-05 -0.012715771 -0.00097270948  0.011779102 
 2935000    340.03689    451.41211   -185.03872   -185.20238    364.66495    5423.4696      27.0546      59.6399 -0.00050185022 -0.015729895 6.1273985e-05 0.0059172832 
 2936000    341.82836    453.80592    97.166111    97.037572     344.3843     5429.841      27.0546      59.6399 0.00081887727 0.0039102861 5.6160781e-05 -0.010563161 
 2937000    335.47802    445.38674   -342.48395   -342.58366    298.45262    5289.4339      27.0546      59.6399 -0.0002352266 -0.024178663 -0.0002114026 0.00041655951 
 2938000    339.27967    450.47559   -177.40213   -177.40647    278.51733    5326.0566      27.0546      59.6399 0.0003101569 -0.0053123472 0.0001304116 -0.016266545 
 2939000    342.00902    454.06181   -119.81206   -119.90354    273.26794    5361.4124      27.0546      59.6399 -0.00062158774 0.0076726289 -0.00025592037  0.027104651 
 2940000    341.91737    453.93252   -248.11596   -248.22504     290.2582    5377.0392      27.0546      59.6399 -0.00049432641 -0.0080128394 -1.7886383e-05 -0.0090458532 
 2941000    326.98884     434.1507   -232.66039   -232.67812    387.07532    5251.7613      27.0546      59.6399 6.4176518e-07 0.0017110725 0.00044089885 -0.020270873 
 2942000    333.91154    443.26033   -113.97766   -114.18498    359.30936    5326.9858      27.0546      59.6399 -0.00073287641 -0.022464997 5.6517304e-05  0.033643322 
 2943000    339.97381    451.38732   -217.14164   -217.16892     260.1824    5318.0485      27.0546      59.6399 0.00061218134 -0.0069178489 0.00058325418 -0.022150059 
 2944000    337.61178    448.25139   -282.33455   -282.36127    308.76171    5331.4874      27.0546      59.6399 -0.0001392082  0.020105324 -0.00016230629 -0.012337823 
 2945000    344.41648    457.27955    204.80196    204.75959    165.17105    5289.1319      27.0546      59.6399 -0.0010650446 0.0074519548 1.5249765e-05  0.006397909 
 2946000    336.81853    447.10278   -149.57954   -149.82689    210.05518    5220.9796      27.0546      59.6399 -0.00077588858 -0.019929332 -0.00029057196  0.020351066 
 2947000    337.11873    447.56748    15.753552    15.659158    189.46396    5204.8544      27.0546      59.6399 0.00059128048  0.011718389 -0.00025290692 -0.0041651786 
 2948000    344.15639    456.95253   -35.178777   -35.178782    270.73796    5390.8294      27.0546      59.6399 -0.00062362908 -0.010764641 -0.00023081293 0.0010660841 
 2949000    336.17336    446.33257   -143.76539   -143.81285    228.86185    5230.1879      27.0546      59.6399 -0.00021073305  0.013963642 5.4671113e-05 -0.0014319293 
 2950000    338.94787    449.94857    89.321794    89.117415    209.12152    5251.7246      27.0546      59.6399 0.00014143109 -0.021464202  0.000458526 -0.0059382591 
 2951000    337.12941     447.5137    124.52818    124.27655     52.25978    5067.8092      27.0546      59.6399 0.00049914949 -0.00032256941 0.00021693915 0.0090139615 
 2952000    342.71783    455.03087    141.13281    141.10597    189.43351     5288.123      27.0546      59.6399 6.0131595e-05 0.0034124048 -0.00062308206 -0.0025188733 
 2953000    339.66353    450.94342   -43.812736   -43.913896    203.75576    5257.0059      27.0546      59.6399 -0.00011301902 -0.026613798 0.00034459204 -0.013947897 
 2954000    335.92696    445.94448   -174.06877   -174.25715    122.02965    5119.6899      27.0546      59.6399 -0.00030744571  0.034001966 0.00056886431 0.0036820181 
 2955000    338.14194    448.96677    -76.21631   -76.216531    203.05569    5233.6688      27.0546      59.6399 0.00062666174 0.0084676426 -0.00067766996  0.033669337 
 2956000    338.11056    448.92518    77.717674    77.717662    108.68834    5138.8345      27.0546      59.6399 -9.9572798e-05 0.0051338396 -0.00017833489 -0.0096629711 
 2957000    331.05481    439.52976   -119.26192   -119.32479    239.61416    5164.7903      27.0546      59.6399 0.00066829883 0.0075063968 -5.8859936e-05  0.017789532 
 2958000    346.39916    459.85878    15.337176    15.171616    147.66263    5301.1202      27.0546      59.6399 0.00076263963 0.0056389663 0.00060410968 -0.016971854 
 2959000    343.62171    456.24252    108.21179    108.21158    168.29655    5280.4334      27.0546      59.6399 -0.0001039483 -0.014343446 -0.00013086411 -0.0042001153 
 2960000    343.52679    456.09358   -142.95789   -143.01108      251.889    5362.6137      27.0546      59.6399 -0.00019085503  -0.02665446 -0.00014523875  0.010968459 
 2961000     342.0628    454.15955    111.61125    111.58067     205.9521    5294.8966      27.0546      59.6399 0.00095290225  0.036743376 -0.00034824101 -0.019995011 
 2962000    342.15339    454.29104   -112.85067   -112.85531    159.06931    5249.3615      27.0546      59.6399 -8.4445351e-05 0.0017447546 -0.00021644003  0.016133229 
 2963000    342.38729     454.5981   -111.28056    -111.2933    285.31606    5379.0881      27.0546      59.6399 -0.00087013091 -0.022382314 -0.00043238374    0.0294681 
 2964000    339.32178    450.53324   -138.78292   -138.78327    238.44523     5286.611      27.0546      59.6399 0.00050750527  0.034386104 0.00011269908 -0.0066945464 
 2965000     338.3804    449.16442    244.46541    244.19004    122.31486    5156.4755      27.0546      59.6399 0.00047374067  0.020865163 -0.00088579381 -0.0047692053 
 2966000    342.56422    454.82974   -216.39098   -216.41132     71.64652    5168.0508      27.0546      59.6399 0.0007164714 0.0018941712 0.00077782995  -0.01747529 
 2967000    334.26956    443.80555   -32.308921    -32.35464    121.77299    5094.7757      27.0546      59.6399 -0.00054881045 -0.0038313117 0.00027725274  0.026870528 
 2968000    346.62954    460.22126    53.713301    53.678656    108.26453    5265.1494      27.0546      59.6399 0.00057773536 0.00030641098 -0.00013937092 -0.0028181115 
 2969000    340.12355    451.49357   -46.618057   -46.859455    125.92692    5186.0208      27.0546      59.6399 0.0012213102  0.038420133 -9.1745369e-05 -0.045028744 
 2970000    339.34696    450.56053    -153.3735   -153.38807    100.32268    5148.8631      27.0546      59.6399 -0.00028407325  0.038858408 -0.00045683292  0.026409883 
 2971000     347.0611    460.80755    315.40154    315.39763    271.21835    5434.5237      27.0546      59.6399 0.00035932015 -0.0050411672 -0.00031168554 -0.0011212504 
 2972000     342.2735    454.44717    358.16006    358.14767    96.259166    5188.3384      27.0546      59.6399 0.00017334516 -0.017756432 0.00058859189 -0.0041167474 
 2973000    340.31428    451.80642    495.79518    495.69164    170.49304    5233.4245      27.0546      59.6399 0.00016174505  0.011219456 0.00026234611 -0.016537065 
 2974000    348.23442    462.20488    170.87925    170.50397    300.44352    5481.2047      27.0546      59.6399 -7.6598761e-05 -0.024707777 -0.00030619121 -0.0083569865 
 2975000    337.29817    447.77809   -69.534114   -69.692451    232.53086     5250.591      27.0546      59.6399 -8.5250928e-05  0.011580876 0.00037885641 -0.00040659229 
 2976000    346.37558    459.77629   -335.22976    -335.5137    83.545265     5236.652      27.0546      59.6399 -0.00018893187 -0.011609972 -0.0012216396 -0.0092918268 
 2977000    341.13844    452.94347     23.84383    23.839245    302.54148    5377.7341      27.0546      59.6399 0.00010744079 -0.0073623648 0.00050493478  0.017643731 
 2978000    339.13939    450.28558   -362.30243   -362.31547    120.01795    5165.4703      27.0546      59.6399 0.00044125028  0.027115088 -0.00031977702 -0.018385338 
 2979000    340.67385    452.31402    105.35493    105.32123    249.31962    5317.6004      27.0546      59.6399 0.00028679139 -0.0037306807 -0.00035067938  0.014374393 
 2980000    342.66582     454.9728   -40.182108   -40.183546    178.17053    5276.0863      27.0546      59.6399 0.00078683199 -0.0012226887 -0.00024345705  0.005498888 
 2981000    338.96345    450.05424    178.50068    178.49288    175.74545    5218.5803      27.0546      59.6399 0.0009246279 0.0049530371 2.2541233e-05 0.0053513292 
 2982000    341.84563    453.83481   -33.448249    -33.56299    227.15571    5312.8693      27.0546      59.6399 -0.00028961726  0.012600757 -0.00034755069  0.043213554 
 2983000    346.35251    459.81637   -50.079606   -50.200001    281.07033    5433.8338      27.0546      59.6399 -0.00024900868  0.030513966 0.0014446315  0.020592991 
 2984000    328.68094    436.40447    108.82424     108.8229    359.39429     5249.254      27.0546      59.6399 0.00013859463 -0.019145853 -0.00034138395   0.01707658 
 2985000    343.40959    455.94235   -6.1887809   -6.2318431    309.99009    5418.9712      27.0546      59.6399 -0.00059162111 0.0089544393 8.7740143e-05 0.00023871669 
 2986000     342.2023    454.35613   -58.076007   -58.080312    301.47328    5392.4932      27.0546      59.6399 -0.00023402115 -0.0091002771 0.00064131506  -0.00770368 
 2987000    335.02277     444.7582   -214.84834   -215.00376    197.76813    5181.9766      27.0546      59.6399 -0.00051881421  0.017754415 0.00015646256 0.0011119751 
 2988000    341.28811    453.14157    199.29084    199.28479    319.71335    5397.1327      27.0546      59.6399 -0.00078517098 -0.00080995337 -0.00042422201 0.0096417808 
 2989000    339.64137    450.85137   -232.53105   -232.77703    280.09656    5333.0169      27.0546      59.6399 -0.00022343943 0.0026931337 1.3080535e-05  0.031917767 
 2990000    341.82454    453.85173    226.17178    226.16092    278.82387    5364.2238      27.0546      59.6399 -0.00012781318  0.012328447 0.00054994826  0.024605127 
 2991000    337.14176    447.34076   -155.88724   -156.57678     244.9112    5260.6443      27.0546      59.6399 -0.00067087498 0.0041156434 -6.5690639e-05  0.020503549 
 2992000    343.30464    455.81277    136.21641    136.19596    360.51492    5467.9345      27.0546      59.6399 0.0014305804  0.005901366 0.00074964232 -0.015323419 
 2993000    343.06055    455.49169   -320.20692   -320.22041    290.25377     5394.042      27.0546      59.6399 -0.00014745884 -0.0083322497 0.00039323239 -0.027380504 
 2994000     346.1179    459.52598   -73.951216   -74.022753    290.32249    5439.5956      27.0546      59.6399 -0.00027925952  0.020205089 -8.4087993e-05 -0.021987594 
 2995000    333.04179     442.1662   -105.75143   -105.81841     322.8764    5277.6134      27.0546      59.6399 -0.00029554066  0.024064421 0.00035809701  0.016260115 
 2996000    335.50811    445.38938    225.60196    225.41594    398.09392    5389.5229      27.0546      59.6399 -7.3575975e-05 0.0037139395 0.00049340428  0.010978707 
 2997000     337.8968    448.63243   -330.63041   -330.65112    338.34361    5365.3097      27.0546      59.6399 9.6731732e-05  0.031345151 9.400709e-05 -0.034479353 
 2998000    341.14662    452.94045   -142.98803   -143.02471    367.91923    5443.2335      27.0546      59.6399 0.00052464941 -0.0023024138 0.00076395328 -0.00094383949 
 2999000    341.66553    453.62578   -70.463703   -70.508854    475.00082    5558.0351      27.0546      59.6399 0.00028466824 -0.045310794 0.00059985809 0.0090098678 
 3000000    340.46747    452.05174   -276.09959   -276.10613    316.27264     5381.483      27.0546      59.6399 -0.00057617682 0.0065918746 -0.00026807061 -0.026183968 
Loop time of 6171.02 on 16 procs for 3000000 steps with 4992 atoms

Performance: 42.003 ns/day, 0.571 hours/ns, 486.143 timesteps/s
828.0% CPU use with 1 MPI tasks x 16 OpenMP threads

MPI task timing breakdown:
Section |  min time  |  avg time  |  max time  |%varavg| %total
---------------------------------------------------------------
Pair    | 2440.5     | 2440.5     | 2440.5     |   0.0 | 39.55
Bond    | 1541.3     | 1541.3     | 1541.3     |   0.0 | 24.98
Neigh   | 180.85     | 180.85     | 180.85     |   0.0 |  2.93
Comm    | 360.32     | 360.32     | 360.32     |   0.0 |  5.84
Output  | 9.9162     | 9.9162     | 9.9162     |   0.0 |  0.16
Modify  | 1631.2     | 1631.2     | 1631.2     |   0.0 | 26.43
Other   |            | 6.86       |            |       |  0.11

Nlocal:        4992.00 ave        4992 max        4992 min
Histogram: 1 0 0 0 0 0 0 0 0 0
Nghost:        14549.0 ave       14549 max       14549 min
Histogram: 1 0 0 0 0 0 0 0 0 0
Neighs:       981554.0 ave      981554 max      981554 min
Histogram: 1 0 0 0 0 0 0 0 0 0

Total # of neighbors = 981554
Ave neighs/atom = 196.62540
Ave special neighs/atom = 7.4230769
Neighbor list builds = 51282
Dangerous builds = 0
write_restart in_oil_restart_*.in
System init for write_restart ...
Last active /omp style is dihedral_style opls/omp
write_data in_oil_*.in
System init for write_data ...
Last active /omp style is dihedral_style opls/omp
WARNING: Not all mixed pair coeffs generated from mixing. Use write_data with 'pair ij' option to store all pair coeffs. (src/write_data.cpp:312)

# run 1000000
# write_restart in_oil_restart_*.in
# write_data in_oil_*.in





Total wall time: 1:42:51
