LAMMPS data file via write_data, version 29 Oct 2020, timestep = 300000

2048 atoms
1 atom types

0.8264916907274582 27.52550830927091 xlo xhi
0.8264916907274582 27.52550830927091 ylo yhi
0.8264916907274582 27.52550830927091 zlo zhi

Masses

1 58.933

Atoms # atomic

359 1 2.8707258696691853 2.26168580729438 3.8621656076995547 0 -2 0
866 1 5.266693290753507 2.414465065679367 3.681800666968092 0 0 -2
1480 1 2.8871795765297676 2.6280398390933426 1.2179177062562332 -2 0 1
1308 1 3.913031761564459 0.9215407634890163 2.0696871362199 2 1 0
695 1 1.2331068050017153 3.4247730353801056 2.6428964368848216 3 3 2
1722 1 3.7743367243699275 3.8463115414004796 2.704379025517206 1 -2 -2
95 1 2.3877389246616874 4.544805392969224 1.0725886393304191 1 0 -1
638 1 3.9250997343983234 4.053657647633804 5.129649768515028 0 0 0
598 1 1.1398370109481943 2.5989060939811663 4.919067948802791 3 0 2
1513 1 7.014545874508178 3.1264092331281645 2.4788804648599108 1 0 1
2011 1 9.435309463604579 1.236774774738599 4.236558682605064 -1 3 0
413 1 5.366560919997964 4.356025181397436 1.6038294688187729 1 0 2
1036 1 6.229745286658921 4.12149727666192 4.690447236154375 1 2 -2
813 1 9.302731627640084 2.235452171822108 2.2673133943784913 1 1 -2
1837 1 8.974720309691676 3.5799736980615005 3.8984949955768586 1 -2 -1
333 1 8.805625906600653 3.9506629139910574 1.180727966117979 -1 -2 -1
1481 1 5.431770609039862 2.401840090692302 1.0012171409891268 1 0 0
650 1 7.478927510023548 1.9641336974872727 4.256460918278805 2 1 -1
1069 1 11.138376997079002 3.7055249153091925 0.8436548207865392 0 0 0
685 1 12.459758864281396 4.1414563701453755 5.2574062719283825 -3 0 -1
1829 1 11.098492181810185 2.8161487133176766 3.7829779476035497 3 2 -1
388 1 12.691559033597803 4.2188453122129825 2.5319221037449955 1 0 -1
149 1 12.637683394591173 2.081451339326805 2.002183314770847 -1 -2 1
1824 1 13.692804248689594 2.7376335386156114 3.7863875247638568 2 0 1
826 1 10.355546497764456 4.538276861611072 5.223081503908705 1 0 0
1907 1 2.3437249462583294 4.90099655105202 3.853980475339553 3 0 3
1860 1 1.7508775797299188 7.0298843782520155 3.1756946347571637 0 -2 -1
2021 1 4.025152905439711 6.179497007110716 2.112557234391825 -3 0 -1
1066 1 3.0837238073372233 7.888124925158195 1.3543033859833398 -2 1 0
579 1 3.3685500004862576 6.525995261880738 4.839230871162137 -2 2 -1
1418 1 4.8564872802301915 7.70683366579126 3.7908987955133413 1 0 -2
1667 1 5.173046732710602 8.210195397293873 1.1715551016129981 -1 -1 1
1257 1 1.46082994411637 6.557550996272955 0.991217136717753 1 1 0
454 1 7.6439675296512055 5.080772887038678 3.2630284896686024 0 -2 2
188 1 5.324359077412075 5.618633723637655 3.569129464067732 2 0 -1
140 1 7.1457639883091675 6.894618676201399 4.0938654885773555 1 0 -2
9 1 6.676641103409691 6.90007249095623 2.0102015624885694 0 -2 -1
29 1 8.767796506835122 6.2578211932973655 2.128235252484999 1 2 0
934 1 9.400244987686035 6.314760691639756 4.500101762255827 0 0 -2
1965 1 12.166635303693113 5.849722790195338 1.0977326504645117 -2 1 0
198 1 11.876182327831472 5.679915596851746 3.6540188223232364 4 0 1
1808 1 10.223176156189815 4.753288334857025 2.695585096699714 -2 0 3
382 1 10.608915251306733 7.127255350400412 2.2962027155246 -1 -1 2
2031 1 11.616116046413719 8.008469561127201 4.216669060816394 -1 1 1
1090 1 13.081155401140391 7.353122410701942 2.597948896492926 -3 0 2
1675 1 14.044836437938066 7.298461493670241 4.722103977227887 -1 2 -1
1504 1 1.242905024452218 9.117845401228328 2.1611363837725355 4 -1 2
316 1 2.734234380306576 8.679539334600861 3.7493456497151074 1 2 2
1961 1 2.4242392110918956 10.547268875581016 1.0509034268960882 0 -2 3
865 1 4.803178701559279 11.754276051843782 3.177422191780639 0 -1 -1
618 1 3.308068744529113 10.606772295670444 4.441623653820322 1 1 1
1926 1 1.3947925999668764 10.862304087210799 3.560824132417561 1 1 0
1555 1 4.109399717642322 9.849254668496474 2.458268309466416 2 0 -1
1733 1 2.353918920332608 12.196511596722418 2.4652449892363792 2 2 -2
1759 1 4.137109138344915 11.886525576747331 1.0313721656311543 1 -1 0
1521 1 7.507074207704892 9.484675683525163 4.528760009103122 2 2 2
2017 1 9.471509199269294 8.547356467760455 3.818906573722409 0 1 2
186 1 6.378083847862965 8.967062113146655 2.5970840555543107 -2 0 -2
1661 1 8.249330105249154 8.529659089668822 1.95562596642793 1 1 1
292 1 8.555733645411237 11.315296854178404 4.704728199104 1 2 0
1494 1 6.629925897192505 11.857363587857142 4.228753415751583 1 1 0
1332 1 8.139033245772273 10.502120696779592 2.5290480001555196 -1 -2 1
1841 1 5.342520880333414 9.728420469458722 4.459911539434975 0 3 3
431 1 5.759550952435483 10.617558211564361 1.298464052057303 2 -1 0
344 1 14.09982648268487 9.56387604732677 5.258369552874235 0 0 1
532 1 10.20478833127722 10.571935413542471 3.374421018892206 -1 2 0
1782 1 12.428291935478793 10.590959606275927 4.432563154369316 -1 2 4
926 1 11.53888589275816 9.168838425090225 2.2789566839899678 3 1 -1
1656 1 10.569038148868163 11.798377538574865 1.5990267467989787 1 2 -1
751 1 12.519057060549963 11.444718833837376 2.4464339915098705 2 -2 -1
415 1 10.034752469848875 9.393785589376803 1.1185110840854264 2 -1 1
850 1 13.688114318617576 9.349722482368641 3.1955300875900363 0 0 1
1499 1 3.261967756659729 15.24784749871389 3.5491364101702296 2 0 2
1714 1 2.750139723838676 13.980863638925465 1.4544171053631787 2 0 -3
616 1 1.5183411978626502 15.531665801613379 2.1792699616396565 -1 -1 3
1721 1 4.906823670994803 14.005767751122379 2.6129139065275533 1 -2 2
939 1 3.582229993045586 13.05571369536752 4.19955178823713 2 0 -3
927 1 1.6125286085302881 13.73378527848441 3.852879006082378 -1 -1 2
693 1 9.133330451183019 14.567142861376485 1.2309000145876658 -1 -2 0
82 1 9.200810908451876 13.596072712301478 4.856639159867358 0 0 -1
1637 1 6.844530787285976 14.010815663250238 3.7151565841998258 0 2 -2
1984 1 7.116810273919317 14.852450910939316 1.4980574923789112 0 0 4
504 1 9.600685911223717 15.486625798707372 3.456398090595294 -2 0 2
1270 1 5.506525465024882 15.897448704322493 4.160286276677899 2 0 3
833 1 8.62492541967589 12.74816981748251 2.6861659957803736 -1 -1 2
490 1 6.710788975798098 12.37295934989394 1.952571536323242 -2 -1 3
2000 1 12.532430971724859 13.091268554551206 1.2588872328319645 0 4 -1
936 1 13.574813952885625 12.779998068369688 4.507972305014237 -2 0 1
1448 1 11.071911537854048 12.30520420583096 4.307567105344863 -4 -4 2
819 1 10.576581978905962 13.718917580111322 2.590798837162872 0 -2 0
1546 1 12.244983487718887 14.158479282995975 3.4044490445861553 -3 0 -1
1796 1 13.140382743414863 14.940260092821946 1.4466892634053403 4 -1 0
1222 1 5.218639138987912 16.38192198606031 2.046260285467212 0 0 1
522 1 1.9628613374788746 17.374545263860885 3.5197935295009466 3 -1 2
983 1 1.8223020588376944 19.147116310958932 1.541966217523731 -2 2 -1
384 1 3.2578926325131388 17.01709395511209 5.237446590952896 1 -1 0
552 1 4.115711734352934 19.369327220079782 2.0436877848634287 -1 -2 2
1017 1 4.256272678445587 17.865347295706346 3.393335288615982 1 -1 1
971 1 2.729515337142697 19.20715010222028 4.137716484475295 -1 0 2
241 1 3.125515760700853 17.092045092977724 1.8566592804102904 -1 0 2
1177 1 7.83702271207986 16.47506700251568 3.2034771210427775 1 -1 2
1664 1 8.378042856825012 18.618621146284944 2.877848074951037 0 -2 -4
935 1 9.429604006208498 16.853708430643927 1.720543484297401 -2 -1 2
1785 1 7.271236899016494 17.49558687620552 1.2815593365859244 3 0 0
1528 1 6.301660538064673 18.08338848402548 3.3475982823919717 1 -1 0
995 1 8.383024939730182 17.8919146976768 4.718457465621753 0 0 1
1940 1 6.283171741301143 19.49345372301517 1.7445477788950055 -1 2 -1
1642 1 6.880828609066553 19.77088583152947 4.907384257537243 1 1 2
871 1 11.779076771169603 16.328743260827977 2.65554034618019 -1 -2 3
922 1 12.123206138215508 16.203629135615664 4.793042551782234 1 -3 0
1651 1 10.408567592084804 17.620019345186936 3.8045878945697504 1 2 -1
1192 1 12.691666104177902 18.108709120338716 3.1878949746464427 0 0 -2
1219 1 10.438655324428385 19.27042286812527 2.201075272162378 0 2 3
780 1 11.486855605003194 19.45362290057591 4.686863959588301 1 -4 1
178 1 13.330088987471314 19.638326171334153 1.6180930110455798 -1 -3 0
704 1 11.308678920234023 17.82970156711048 0.9595728983675347 1 0 1
389 1 14.052297774999612 19.340830265716665 4.645341753665991 -1 -1 0
1653 1 13.58416706970451 17.190392699410193 1.1689288198201906 2 0 -1
1450 1 13.999203435861553 16.448331946505775 3.0125875074131834 0 2 2
674 1 1.6989865270453515 23.087449374821205 1.5660174395573607 -2 1 2
2018 1 5.118951704399611 20.089567163877692 4.045716557237651 -4 0 0
1397 1 5.056126011733584 21.353302686353246 2.1330763353274795 1 0 1
125 1 3.1134378321442044 21.337704407349776 3.2108637214095954 1 1 0
1146 1 2.5576040065402 23.35455096988879 4.159764596744915 2 1 1
353 1 5.185204496601652 22.15866201781542 4.335419155519178 1 0 1
245 1 3.7456294975930873 23.208822458965564 2.4530640677848248 0 2 0
1005 1 1.161623121230566 20.752670657121573 4.498618361379518 0 -3 2
124 1 0.9424962850203464 21.19469972012854 2.382299502275206 2 0 -1
645 1 2.8131750327127323 21.130235326390128 1.0599769095758553 -2 -1 0
1754 1 8.857051634614287 20.708079636772634 1.2708818591928472 0 1 -3
1118 1 9.423684187639726 20.011777227962366 4.187043343837945 0 0 -1
1898 1 7.586122216227512 20.741070459241346 3.080259852998347 1 -2 -1
1173 1 5.625259541686934 23.389891728565164 1.811259315382773 4 1 0
626 1 7.379760798448113 22.938619008834642 2.8170950577035336 2 2 -2
440 1 9.107153871125535 22.88304028137895 1.2715827265368236 1 -4 0
557 1 9.500048580743147 22.033847945197767 3.5385480133670146 -1 0 0
1850 1 7.26673689268017 22.13864400947759 4.9467066677732605 -1 0 1
1678 1 11.03895225474764 21.923956973708183 4.766386759644287 1 1 -1
593 1 10.96693205192189 21.599005733142455 2.302393133467019 1 1 2
1660 1 12.750161132191085 23.14806654603979 3.4445271540449727 1 1 3
1295 1 12.48954225278765 20.717903090340144 3.4428960397463144 -1 0 -1
80 1 13.077043271352231 21.892721969667004 1.6619709508793306 -2 0 0
2036 1 10.849331538801906 23.624167257918234 2.5512747683909907 0 3 1
1744 1 4.126934362415114 27.37151913301931 4.732899525633476 0 2 -2
1958 1 0.9694483306241644 27.277851753179522 5.274264222430705 -3 0 2
354 1 5.084020162035915 24.126544239744263 3.885694099476789 -2 1 -2
400 1 4.748159546520172 25.312684046429585 1.8464633153641687 -3 -3 0
1061 1 2.4526152627743487 25.824817719911458 1.7143564756504392 5 2 1
1298 1 1.9788171159119758 27.0489241348984 3.563997921042881 0 0 -1
26 1 3.436618476064546 25.599955127115255 3.6081923771201057 -1 -1 0
1851 1 1.8179451038079617 25.334400553955494 5.078119454398532 2 0 1
858 1 0.9504573836598738 24.507482766222793 3.159334282275325 2 1 -1
989 1 6.143919797274904 27.438975486126886 2.5269213220578113 2 -1 2
1248 1 8.837900327414236 23.892289509883728 4.281135855874391 3 2 -1
514 1 6.990689528847978 24.382088319681355 4.9388629661994 2 0 1
402 1 8.5900683716194 26.970707793436862 2.3019779544888515 -1 -1 1
831 1 8.193912787121896 26.187395943508143 4.3629558394285155 0 -2 1
1679 1 6.80866639456861 25.25633234728375 2.7286506512883903 -3 -2 -1
1035 1 9.017296808259514 24.714904389118857 2.1665780083318404 -2 -3 -1
1167 1 5.979723663302823 26.55750141853281 4.68048974665504 -2 1 -1
1459 1 11.066806954039361 27.473314442920955 3.0666481763895224 0 0 2
2006 1 11.143522604198381 24.168558317059873 4.916920436135216 2 2 3
1256 1 10.661927200427119 26.10896857528912 1.4306150296038922 0 1 -2
1287 1 11.702623536548874 26.752623929215947 5.147888478017741 -1 -1 1
1710 1 13.067901340079185 24.256357593045195 1.4623943714802436 -1 1 0
1931 1 10.011307061085652 25.65874814152124 3.743872094423394 0 -4 -1
120 1 12.95453503984724 26.5820997177942 1.6124883315297747 1 1 0
1738 1 12.096132549427361 25.33699166165775 3.1326994633590832 0 3 3
1621 1 13.435715357972736 27.371846458992408 3.69229496745926 -1 -1 4
896 1 13.288922255922731 25.231504405704197 5.070134372513526 2 0 0
1640 1 3.6370848433448195 2.1802176090448544 6.039127465268219 0 1 2
1006 1 4.359277478188812 2.7051573293578866 8.010499628106295 1 2 -1
609 1 2.5343282750531007 1.3542345789590313 8.072711525854285 2 0 1
736 1 2.2904315601592957 3.9471539086540983 6.300728934309543 0 -1 0
321 1 2.2708082419920377 3.47653627366163 8.400934616375814 0 -2 1
1330 1 5.86300529593003 1.697046015749201 5.807419559999763 2 -1 1
857 1 8.581567927481371 3.3219284344905957 6.226035279371937 2 0 1
1110 1 5.902482328832715 3.710385971926971 6.943189228921158 1 0 0
1292 1 6.08123913796155 2.933921755631876 9.554017362299128 0 2 2
1100 1 8.064918922627566 3.3768963461032833 8.34008297749184 -2 -1 1
1813 1 6.738633042047604 1.800815779142138 7.748538982452325 1 1 0
802 1 8.072833581465773 1.0310170879991807 6.336886037289063 -1 3 1
380 1 9.361693734722095 1.4057258284746408 8.467627311505357 -1 -1 0
611 1 13.32227887459789 1.0163901658306844 8.677137455295554 0 0 0
910 1 10.56486712047669 2.280892595065623 5.719188786540601 1 0 3
491 1 10.257813794991762 3.172648972893689 7.970565838427231 -1 -1 3
840 1 13.728155040341461 3.587576785575619 9.48847586712198 1 0 1
339 1 11.504410706053562 1.038415810148014 9.689820846466414 1 2 -1
335 1 12.334198955490889 2.5991487844369887 7.594088972021923 0 -4 -2
1876 1 12.881976579857682 1.7323191917439689 5.691418537826718 -3 0 4
476 1 3.875593660808248 7.639967614549217 7.188620270060912 -1 4 -2
1925 1 2.5393336884760607 6.262152873063947 6.991168352866642 1 -2 -1
544 1 3.7016126934495754 6.634228951760032 9.433243559525486 0 1 0
146 1 4.120634375686642 4.89273134660865 7.51032246169991 0 -3 1
1553 1 1.6579743606753508 7.627416077008461 8.358922192538717 2 1 -2
171 1 1.551115270678419 7.5868900309367895 5.632230085150232 -1 -2 1
214 1 1.9309547626898962 5.437435103235844 9.011150709510522 1 -1 2
1191 1 7.730745951253309 5.194974439459108 5.462843283016026 -1 0 -1
70 1 7.141857417253299 5.2696440115054575 7.672118372562111 1 1 0
1579 1 9.419109651472265 5.597414802529873 6.903742819570967 -1 3 1
754 1 5.653480178194254 6.143550075778076 6.147248274715057 -1 0 -1
738 1 8.245144395729444 7.564250553075464 5.8498852097020215 3 2 -2
851 1 5.85760738941992 7.084388786207382 8.211908006491733 0 -1 1
1085 1 5.960746865224458 8.314135486241163 5.897784979528585 1 -2 -1
648 1 8.148257646077306 7.633677435315568 7.923034139032622 -3 2 1
1896 1 5.552845583112446 5.129590741703306 9.082527073275372 3 3 3
1745 1 11.439873686913504 6.517483544408083 5.525915129745659 0 4 0
1140 1 11.862928179950739 4.7459252851379325 7.623352948063772 2 1 -2
75 1 10.033077141000454 7.172667036576931 8.645175985792275 1 1 1
1627 1 10.127616713296893 7.892109899831467 6.368197033196831 3 0 2
2033 1 12.565776406416235 8.2021823790542 6.152616771371508 0 2 0
1187 1 12.035553498765552 6.706255917582224 7.680161647771754 -1 -2 -2
1296 1 11.856434087854543 5.223739280775627 9.57241324433085 0 2 1
689 1 13.581282095373187 5.659852789748838 6.074179353021229 0 3 -3
827 1 9.792554078876993 5.073744649673927 9.200229396376589 2 0 0
1704 1 13.839511322413747 4.970236085551753 8.003216918191084 0 1 -1
1863 1 3.7335484575930624 8.771696870065071 5.502478576209325 0 2 2
1646 1 1.4496160329966954 10.088235293588616 5.707726572065181 1 1 -2
1712 1 2.4396395088299876 9.297151527464054 7.5160807297009695 2 1 3
275 1 4.386588653327218 8.90949962838839 9.187709257690004 3 1 0
300 1 2.794878801074284 11.49550365303962 6.960064658502867 -1 -2 0
308 1 1.72166495749543 12.111985859545454 8.83411720365468 -2 -1 2
1524 1 4.59237470981026 11.678629704188095 5.659430336259653 -2 1 -1
2005 1 4.385518220177554 10.097565504223581 7.323622125472149 0 3 0
830 1 4.114210886781528 11.50964470315887 9.171392626386016 1 2 0
846 1 8.82929319685344 9.931696679756653 6.665272309492283 -2 2 -2
642 1 9.204088061976504 9.409629085367225 9.547010833430836 0 1 0
1897 1 6.610254571281306 10.618989596190993 6.210808755848926 0 1 1
502 1 6.350774296681498 9.069384545852893 7.912058034619342 2 -3 2
623 1 7.438493962415461 10.86913515149257 8.047679193956048 1 -1 -1
62 1 5.4387505112551064 12.162116654659092 7.716838919196477 -2 -1 0
488 1 14.076414724868673 8.609100896557436 7.357375701495342 -1 0 0
1955 1 10.62585567613242 9.894357358723175 5.41687292085681 -3 -2 1
2040 1 13.408798333016879 10.580942588451268 8.415550729002618 -2 2 1
266 1 9.901328872684271 12.003832079646708 6.232529378109045 2 0 0
580 1 10.343342925646244 10.17011611710651 8.027435916917868 2 -1 -2
643 1 12.28898302828824 10.483350820221437 6.706030700031843 -1 2 1
1369 1 12.084232563095933 9.011032486611374 8.45449423528773 -1 -1 5
428 1 11.542530495716045 11.87856516408098 8.429346994020435 -1 1 0
1367 1 1.8120551509949867 12.294467579574206 5.309067943193116 2 -2 0
2045 1 2.793048250669705 15.030537811472813 5.989427198960507 1 -1 -1
1142 1 1.899294043852265 13.605134623848153 7.141899746103589 -1 2 -2
843 1 3.4359010373128736 13.58003366623222 9.536254706655383 0 -2 -1
1680 1 3.979777338076161 13.662362388119416 7.268955452178051 3 -2 3
745 1 3.932345659142821 15.946196156618115 8.118830448820486 -3 1 -1
723 1 4.87330046639588 15.672615378971457 6.098775959870129 1 2 1
79 1 1.5413374155258333 15.608470426463604 7.830657267306335 1 -2 0
1182 1 5.266433347185935 14.184555110167512 8.900890899175629 0 -2 0
52 1 5.7299549026770205 13.685147022475116 5.498086771705247 2 -3 -3
515 1 7.581505485987471 15.146868381614913 5.34647042795733 1 -1 2
567 1 7.468528942916439 12.70894061953377 6.340989813996494 -2 0 -1
1379 1 7.486694481075291 13.0738653479318 8.483866616497679 -2 0 2
1849 1 8.205875176021507 15.792873881518377 7.543225344372851 0 0 0
302 1 6.427432358091129 14.529071541556345 7.175853742323754 3 1 1
1719 1 9.425356525942018 14.081456492878191 6.804320415598201 0 2 -1
1318 1 9.323125246605963 12.292841977900926 8.208802197322804 1 3 0
766 1 9.172561898828214 14.625055457140073 9.032652970762227 0 -2 1
1522 1 7.102224817036662 15.127220167585616 9.66695554605357 -1 -1 1
893 1 11.242425455899093 14.277569182006191 5.283229915408811 2 1 -1
463 1 12.047896353730083 12.628516865118275 6.193414755338287 1 1 1
1444 1 13.583862566877473 13.124464738145699 7.3961493749836045 1 1 1
705 1 13.302605129868644 15.285483077193895 8.129288253575941 2 -1 2
1820 1 11.265263665248973 14.008277376067591 7.711739555573724 0 3 0
385 1 12.575666448728317 13.391810668283794 9.506690905386572 0 1 1
122 1 13.313329528890641 14.466560645403662 5.97192587999853 2 0 -2
1037 1 11.111054288258801 15.276020763121348 9.50893389629259 2 4 2
734 1 1.1533785773185006 16.15444679656769 5.388108091936034 2 1 1
1106 1 4.608602537545457 17.878437117256027 7.644374912922971 2 -4 0
1970 1 1.762483813912701 19.53566083956906 8.156345857019888 -2 -1 1
969 1 2.7441135267194143 17.674479231222687 9.356726983081838 2 1 -2
1943 1 3.1474429595451365 19.232411852226992 6.312654320653141 2 0 2
11 1 2.282615143979064 17.355901038708332 7.065745219813689 -1 -2 -1
789 1 1.116070290248093 18.56906182519946 5.4768007397030685 -1 -2 -2
456 1 5.219061929333482 16.357897718033627 9.615542436770479 3 1 -4
612 1 5.128859543247624 18.44330406870178 5.540531250852925 -2 -2 2
1174 1 4.082071716352672 19.81342134232278 8.15391204176428 0 -2 0
1251 1 6.903901395270125 17.110943001176246 5.557682432409739 0 0 -1
1916 1 6.231453056912433 16.851344999014295 7.347137889286772 1 2 1
1588 1 6.487165204657387 19.389868317328652 7.3575688657544775 1 1 0
238 1 8.378525331376853 18.016642165174748 6.9590550876532875 1 -2 -1
604 1 8.093418826467715 17.420512077038047 9.084298756174066 0 0 -1
811 1 8.14844152785714 19.625223671914387 8.665171563021513 2 1 -1
868 1 5.968176773726334 18.246979549386293 9.164132150099048 -2 -1 3
1462 1 9.826506497109609 16.306591569396886 5.6031683670705466 2 0 1
1561 1 11.82118869960874 16.25235478616746 6.9367483849069975 2 -2 0
1064 1 10.063143084986894 16.60608983855244 8.01418259242099 1 2 0
1159 1 13.741093109774372 17.405783920842634 7.63593144848822 -1 0 -1
1941 1 11.938797167440711 17.30527869226854 9.15610113720639 -2 -2 -2
520 1 10.437974737815997 18.27432907963688 6.035494441606861 1 0 0
1626 1 10.122997827828998 18.807190797666472 8.020887747528121 -1 0 0
391 1 13.69659696372112 19.017256116387802 9.199001103559485 -2 0 -1
1980 1 12.584681559485588 18.091845589868385 5.7131814336811875 -1 0 -1
337 1 12.346809264653889 19.19324196249951 7.546684375176514 1 -1 2
809 1 11.460953801993492 19.309854800613678 9.656670454096902 1 -1 -1
1682 1 14.116688560794849 16.361556124348727 5.4548350637349605 0 0 0
525 1 3.0590128302557202 21.102353884601623 5.312627112581632 3 -3 1
543 1 3.922831900328999 23.126006587638066 6.122119747922962 2 0 2
1356 1 1.2622961064162803 22.244500695241296 8.173234500191548 2 -2 1
156 1 1.5466714477605343 22.724434668142937 5.9455012065179975 0 0 2
1725 1 3.670355757600033 23.433050499485343 8.823748785022612 -2 -2 0
482 1 3.1005712851058456 21.456869440629823 7.63660922046099 0 1 -2
1470 1 5.127281030199427 20.730007250977856 6.2929380203191645 2 0 3
1792 1 0.8302635836619296 20.652199100965138 6.6080354122502 2 1 3
4 1 8.357922080205354 20.07844809762802 6.4278222817033335 0 -1 -1
1989 1 7.691853398285899 21.891663200880995 7.447263805354971 0 -1 -1
1636 1 5.660576074528774 22.09315008330904 8.081558034689067 0 -1 1
925 1 6.020217190937199 23.379638599109924 6.302853857410743 0 -2 -1
818 1 7.96048308002271 21.450244105557818 9.478035387717703 1 0 -4
894 1 9.39990915815945 22.23816828003745 6.07622079059905 1 -1 1
167 1 9.661993177247298 20.965006361967635 8.242618165059216 3 0 0
1516 1 9.429049222230523 23.1808466912509 8.712823747166098 -2 -3 -2
1833 1 5.975572468060173 20.354054179668363 9.195108796809057 0 -2 0
1190 1 5.982157347600986 23.62034097025264 9.706124784443714 2 -2 -1
63 1 13.313488611184077 20.821373440709145 5.865572581760334 -1 -1 1
506 1 10.831280372246948 20.61008281062982 6.588084154998715 3 0 -1
554 1 13.6349302506475 21.041100399811583 8.102837351582485 -1 -2 1
1297 1 13.363081120844898 23.118544380365652 8.829198004274277 0 0 3
1 1 13.086194535291662 22.90173367175428 5.662908999370721 -1 -3 1
1920 1 11.489589725362928 22.725361829399816 7.1372208940887605 0 1 0
884 1 11.665416155176914 21.559354365129114 9.109962491318782 -2 -1 0
10 1 3.933278582181107 25.115110424251466 5.678539971297272 0 2 1
299 1 0.9079177902535918 26.153281436507488 7.2611402009358565 -2 0 3
524 1 5.0391786847194755 27.47436197613493 9.248621575078216 1 0 0
269 1 4.96609369532651 27.004207170854986 6.945172876844743 1 1 0
576 1 5.029239918392984 24.91036536650417 7.549587640822109 0 -1 1
719 1 3.1495820865506423 26.019794324402824 8.102095959517756 -1 -2 2
546 1 2.17483297139757 24.331149013974226 7.306081809582435 0 0 0
27 1 2.840337087233122 26.788303083599907 6.099148283827698 -1 -3 -1
1490 1 7.287428408519298 23.962599161687855 7.9908206472714145 0 -1 0
1238 1 8.627564086988873 24.197906534772674 6.243493939611999 3 1 0
441 1 7.226221566375765 25.728976935398677 6.519220998776641 2 -1 1
720 1 6.493135057629885 26.030809581579717 8.658421311370804 0 0 -2
1694 1 8.81541066601698 25.734520500444887 8.170184721839412 0 0 1
1184 1 13.115158551499718 25.591096184843316 9.255143986728374 1 1 4
185 1 10.891223222862543 26.029109929623207 8.938025920880918 2 2 -1
845 1 9.788710404575736 26.661966031062573 6.406574938705314 2 -2 1
646 1 10.8144729890704 24.792283035908586 7.058192693898969 0 -1 3
1843 1 13.022903982657843 24.442587558143984 7.11529807418638 2 -2 1
683 1 11.689273339242217 27.159831481302792 7.365347413086188 1 -2 2
117 1 13.839535988292013 26.34874115050644 7.204579849730646 1 -2 0
684 1 11.413422156580156 23.953043473604914 8.995352830949285 2 0 0
771 1 0.9467791303078548 1.9041115790899223 9.79897526047201 -1 1 0
1094 1 1.4982369418357662 3.606368603176344 13.340405620771984 2 1 0
509 1 1.6652745008164058 3.632361768367545 10.522404608597364 -3 -1 -4
360 1 3.8160059107135993 2.3210262784935383 10.218872633922182 -1 2 -1
816 1 4.36705909636852 2.1450455426067387 12.768017167698728 0 0 1
863 1 3.4098118612064496 4.12057794175758 11.791849613080878 0 1 -2
1501 1 2.3837814474476193 2.068428871440285 12.082516639916442 2 3 2
1272 1 3.76755730896145 4.393219817994311 9.726255382432733 1 4 0
1304 1 7.3779312714022485 1.3021768606446837 9.935772214451678 0 0 2
1261 1 5.9658562843749685 1.6716422928064736 11.530974641244791 0 -1 -2
574 1 9.12291115751302 2.5392039856171564 10.364845754544946 0 0 3
860 1 7.17990133457557 1.2577804847846532 13.965192914015503 -3 1 -2
423 1 5.50556103656563 3.888150915260732 11.380614853200427 1 -1 -2
244 1 7.683618874732314 4.339532591339577 10.351360690722021 0 1 -2
821 1 7.610084088108888 3.056565986897291 12.229023075569534 1 1 -3
1590 1 9.556760041559128 1.77604097302272 12.749310444353762 1 1 -2
1728 1 9.644417146473025 4.332456399895651 13.40772854741189 -2 1 3
610 1 6.008807154791068 3.3482863935065894 13.771185003905174 3 -1 0
1247 1 11.331599393015031 0.9463128301082797 14.043445571780115 3 0 -2
570 1 11.310657811175297 1.5402204434592732 11.768146057918413 2 4 0
1310 1 11.497828342620595 3.1452410941828988 9.963019410726972 -1 -1 -1
448 1 14.148299299135273 1.3474258480080632 10.263027810659146 0 0 2
131 1 13.017433449360265 3.007745367975872 11.715000575522943 -2 -1 0
774 1 10.257938806164683 4.060907974065575 11.457471717496029 0 1 -1
1400 1 13.269581080085475 2.2384014831875665 13.76928992376312 0 0 1
1232 1 11.509915148032556 3.1411968405925816 13.29368301601772 -1 -1 1
1457 1 13.21354873324002 4.590249211524794 13.7131847161432 -3 -2 -1
1422 1 4.869218841976899 8.175653563002953 12.778285783434182 0 0 0
952 1 2.3064607344665173 5.976226483554261 11.428037688701691 2 3 2
677 1 4.514009238603062 6.13828087351527 11.701938772889346 -2 0 1
1821 1 2.4748965843933854 7.956451915799489 12.765241313226902 0 2 -1
1275 1 1.4041690656163577 7.5146181291520735 10.583979941540784 1 0 0
396 1 3.394818286758352 8.105431158783567 10.732249816073175 0 0 -1
1409 1 2.5243355316564005 5.730363598696453 13.456080313359022 0 1 -2
932 1 5.304467858534027 5.431753375207781 13.568927685319709 0 2 1
199 1 7.795424580525287 6.383416526681189 9.799034427388658 2 2 3
1559 1 6.518054507477301 5.713432385200623 11.621224949609553 4 0 0
1567 1 7.445636469256422 5.120318081785571 13.532902147315303 1 3 2
1787 1 8.774913249723006 5.80897689552365 11.81285629409488 -1 0 2
1911 1 6.82644067860046 7.397911475879139 13.160100763704417 -1 2 1
1870 1 5.595482091697131 7.356192861444057 10.455100328110184 0 -2 -1
1609 1 8.662731582152158 7.914481393877579 11.439410756825561 1 2 -2
1691 1 12.811611367549371 7.245769528916247 9.93669117255589 1 -2 -1
2042 1 12.61112090295481 5.400267611368067 11.606768666447467 1 1 2
632 1 11.059819006024217 5.659609822451923 12.80497507160659 0 1 2
1591 1 10.59912649454502 6.498891359191488 10.782255293582663 2 0 3
838 1 12.429691896328455 7.4608908137869685 11.855681503835697 1 -2 -2
164 1 10.988470696284661 8.435326206699301 10.476842344612965 -1 -1 2
1396 1 14.162174586184364 5.518826711197797 10.206241685226642 1 3 -1
310 1 10.34104522512129 7.758265586997417 12.81302508927827 0 -1 3
875 1 13.349516320127362 6.957739607396916 13.72540604365157 -1 2 -1
759 1 2.2380726817126413 9.751068928918048 11.782643083087729 -1 1 -1
1054 1 2.4078763569997728 9.785640637145558 9.746797387661902 1 -2 0
1572 1 4.1022639141088 10.520959034598713 11.353034613786622 4 1 1
902 1 1.8537409157822964 11.826526767887879 13.08644540976071 0 -1 1
77 1 3.3873614660302582 10.040520865150103 13.61037859007237 1 0 0
548 1 3.8962074353975353 12.193752455174415 13.269824749821014 1 1 2
1518 1 2.5625303368837455 12.033282550224877 10.772202284366399 1 -2 1
2 1 1.4109365677866426 9.615512747349161 13.608242958547006 -1 -2 2
1629 1 8.69253317827512 11.289664283776657 10.023525415027315 -1 -2 -1
1888 1 7.17506922819451 8.743950973012922 10.025375261245296 -1 -1 -1
109 1 5.459646898745293 10.90877821980116 12.854119681980476 -1 -1 0
653 1 6.080116890135468 10.704423607843824 9.815434948695813 -1 0 -1
1948 1 5.777427443800724 9.29211117422258 11.277777856031811 1 1 -1
1088 1 7.539405626718733 10.464943820818695 11.770842974248866 1 -1 1
56 1 8.196603642800017 9.250313810309136 13.610604461961959 0 1 -1
381 1 8.757286804333546 11.4723209800553 13.171940129869595 2 -1 3
84 1 14.118867672292717 11.191787810910883 13.430491947139961 0 -3 -3
311 1 13.591846548554503 9.067733903526129 12.808174646586812 1 -2 0
659 1 9.864887276276875 9.839999291426153 11.636061679833333 2 1 5
883 1 11.109425593091906 10.509506107004666 10.059335672420012 0 0 3
862 1 13.190475011090934 9.491372283849463 10.557866620774677 1 -1 1
1049 1 11.747250944094215 9.986778464926235 12.335390986970921 -1 2 0
727 1 10.505856008063782 12.185095414396368 11.774302944586877 0 1 -1
1068 1 12.200922446469175 12.079120431567494 13.464309824321074 0 0 1
1087 1 13.064221430775858 12.068304252845634 11.130125789171991 2 -1 -2
1558 1 10.47437943212992 10.551352310835764 14.048894653681673 0 -1 -1
1635 1 2.9810561525312886 15.648736467806007 9.98890245194753 3 0 2
190 1 1.355297995796821 13.990026331601781 9.816205403681819 0 -4 -3
246 1 1.5175285347336562 15.99696556001909 14.021626080030988 1 0 0
412 1 1.615864478837355 14.85679391850453 11.699447415856659 -1 -3 2
624 1 3.3605998501239736 13.899124439665512 12.002779207857289 1 -1 -3
493 1 4.83560484208116 12.498034660706129 10.998865800643804 -3 1 1
1123 1 3.7402164141170435 15.191348211038056 13.640203517755436 -1 -2 -1
1271 1 8.729807737485917 12.957479537662003 11.422287749247506 1 2 -2
1802 1 6.823677009116367 12.452571282288693 10.345170844997762 -4 1 2
1781 1 5.551402283412736 14.553971136064153 11.318603744186438 2 2 1
298 1 5.458522104355287 13.639487955988997 13.947198456858683 -1 -1 -3
853 1 8.781918224429962 15.800473924869033 10.884661094902263 -1 0 1
49 1 7.534288327316149 14.851510232147128 12.53975206245136 1 -1 0
1452 1 6.665813244454002 12.632579479757652 12.411322250355179 0 -1 0
5 1 9.091649739103644 15.509208567305407 13.904376626175909 -2 -1 -2