LAMMPS data file via write_data, version 29 Oct 2020, timestep = 300000

2048 atoms
1 atom types

0.8253183323272779 27.52668166767342 xlo xhi
0.8253183323272779 27.52668166767342 ylo yhi
0.8253183323272779 27.52668166767342 zlo zhi

Masses

1 58.933

Atoms # atomic

1846 1 4.111535313591505 2.0219564549626936 1.0026814848239487 -1 2 0
476 1 2.213313863164162 3.6291961028841317 2.614513180420011 -1 4 -2
1629 1 3.88508190100889 4.109843463836599 4.0588313652673875 -1 -1 -1
1768 1 1.5977041906733636 1.4357381969160796 2.420730951850921 2 -1 0
388 1 3.9650376902487006 2.2495942453149023 3.1809217832416605 1 0 -1
698 1 4.208074630463786 4.097379113003748 1.6528010330628553 -1 4 0
1014 1 5.003506680178005 2.360219596816309 5.163746727140969 0 -1 1
1549 1 1.9236356932038894 2.445703172701853 4.9570026168414385 2 1 1
253 1 6.376660542987664 2.676979895903863 1.0495192299217089 3 1 2
338 1 8.300082715684846 1.6605818892376163 1.2926041297538842 1 -2 0
540 1 6.222131623569021 3.036894723544439 3.1572213546624663 0 1 4
243 1 8.191029820567998 3.362812623789933 4.059036523891048 2 2 -3
32 1 8.105199915296225 3.7371439373782547 1.5918474449278497 -2 0 -1
1130 1 5.953886178184214 4.239362520109803 4.957985772192013 1 1 -1
805 1 8.861323653874075 1.4175757464170209 3.781912204913281 -3 -1 0
452 1 6.951655745189416 1.2802098980691412 4.132562471159309 -1 1 0
1564 1 14.123771986720879 1.2370524072751485 1.5706625818246605 1 3 -2
999 1 9.810867931676663 3.1819441940422846 2.78162586308253 -2 2 0
1663 1 13.779090816190154 2.7846684923767393 3.7699863484887355 2 2 3
1880 1 11.76831112510472 2.04524885116652 2.686343290818044 1 2 1
347 1 11.513963756004234 4.036893673800939 2.413420941151025 1 -2 5
551 1 13.672340846456441 4.563891251803359 2.3146569940477706 -2 -3 1
511 1 11.514607850316269 3.0636206829483448 4.561753528366504 -2 1 -2
1949 1 13.12630103336097 2.8300909922939845 0.8953302708151973 -2 0 0
1330 1 2.1272706120178224 5.292678269433283 1.2326442796026056 2 -1 1
680 1 1.4950929019464643 6.876353667060751 4.478695713868657 -2 -3 0
1481 1 3.171199091609307 6.278747113488234 2.9192012989319696 1 0 0
169 1 0.8852700386762221 5.232200619335161 3.356036857091515 2 -1 0
1609 1 1.4225217011466118 7.675295033888829 2.0714732411581283 1 1 -2
538 1 3.905638447396151 6.185689159547711 1.0239656955697378 -1 2 0
953 1 4.972479588197822 7.765886858771602 3.859434038087634 1 1 2
1852 1 3.7042636757416387 6.275959763017108 5.188364673713736 0 1 0
539 1 7.598769288503378 5.179451165419783 4.026533946896673 2 0 2
1233 1 5.5133478479457025 5.71911336688751 3.308817190143126 -1 0 2
1473 1 9.67604745189801 5.089018988194588 1.745011867039818 0 0 2
54 1 9.28710976695863 6.472269230144945 3.434688036255293 -1 1 0
623 1 6.328586738489646 6.73099189495702 5.1593557431149515 1 -1 0
23 1 7.350969137464779 7.3990516797515955 3.123538075081955 1 -2 1
148 1 6.121641333949512 4.741115820361384 1.596639133611623 -1 -2 2
988 1 5.892016045570357 7.027198222506785 1.5416033049480267 3 -1 -1
2015 1 9.274301644969148 7.725115620184508 1.2565672140441162 1 0 1
1786 1 7.945739284665887 5.828665022646397 1.4142472134276742 2 3 -1
1260 1 12.613245087250535 5.013579522150084 4.357054149646688 -1 -1 0
593 1 10.143504128488443 4.783886319404704 4.306886391026694 1 1 2
968 1 11.392577979585138 6.410408370900522 3.061457175290002 -5 -1 0
261 1 13.528520900062755 6.915523577643057 2.844340923957148 -3 0 2
1257 1 12.972088638719733 7.166386708829539 4.857556286072785 1 0 0
587 1 13.055963961972342 8.22149025255533 0.9461860840385101 0 -2 1
123 1 10.873560022597879 8.344505694629895 3.0520488746400862 3 -2 1
1918 1 10.914094018753376 6.691193782253303 4.986869999964155 4 0 2
806 1 3.875507146186235 8.722118275821375 1.7791442307561423 1 0 0
479 1 2.707238206293529 8.994356798101531 3.6769836324698995 -2 -1 0
200 1 2.0535929541153357 10.150939613566642 1.9399707199656657 -1 0 -1
424 1 3.8737769255007164 11.021689318061302 1.4410849531654786 2 -2 1
1980 1 4.41380432522386 10.239765140601143 3.6458268385032127 -1 0 -1
662 1 3.029164192649269 11.918934336135681 3.3192265762763475 0 1 -2
10 1 4.758049313375407 12.052767728451267 4.524369193856751 0 2 0
775 1 0.9764793682568076 9.20636425830536 5.097357582785364 4 -3 -3
899 1 5.841732404224625 11.645134315817801 2.4337964630912206 1 0 1
2029 1 6.004811240092612 9.132808593208944 2.3755308701297055 0 0 3
1045 1 8.12828402887854 9.364124474455364 2.8737010168448083 2 2 -2
549 1 6.700505815861535 10.56294852689605 4.140883360902748 -2 0 -3
737 1 6.470152983085438 8.835818747990816 5.212006392251784 -3 0 3
810 1 9.496368219251696 10.349384297416696 1.71054480294237 -2 0 -1
1467 1 7.364155520641677 10.681291153391538 1.2181962617733266 1 0 1
492 1 8.652297088341504 11.45671628261262 3.3377719743188186 -2 1 -1
1016 1 9.228647426535025 8.999696791235666 4.6433464646866565 0 -1 -1
932 1 11.413157634978411 9.733834396783198 1.445461212407866 0 1 2
341 1 10.879291688187374 10.484510130252735 3.749169192089013 0 0 1
527 1 12.087921414557238 11.956408272173187 4.781331716012936 1 -1 3
213 1 12.880049043993228 9.22718011477743 3.245204447928892 2 0 4
222 1 12.639899072253098 11.496323565611268 2.200139584540012 2 -2 0
1537 1 10.588188478391684 11.94302963894272 0.9074958496225953 1 0 1
140 1 4.482300575686966 13.068944426564155 1.8806183343708185 1 0 -1
980 1 2.7500050597319303 14.449183337642069 3.4955546714691637 1 1 0
426 1 5.001533935661954 14.172324680845469 3.5228548336199137 2 0 1
1333 1 4.050287296356952 15.596406361059849 1.9968253731047219 -2 -1 0
1773 1 1.6431273496768446 15.426448929557077 2.036133049341118 0 0 2
840 1 1.3280900920815535 12.980451089458748 2.322676212420809 1 -1 1
328 1 1.4183181480315081 12.636320258383316 4.678747552431118 1 0 0
1144 1 2.8381706758142133 13.765910117343978 0.8256757624493716 0 -1 1
1848 1 6.471276766906321 13.636862829542869 2.1748616135502834 2 1 1
612 1 9.087921508870004 14.325046347345248 4.325622350374541 -2 -2 1
1981 1 8.38234313929503 12.295197083077143 1.6987670982488212 1 -1 1
1283 1 6.595129995029981 15.793755590016916 2.4769333571497634 0 0 0
1541 1 8.763754565694391 15.100376434154153 2.0894783826941046 -2 -1 0
1901 1 6.809410268582496 15.084925934604293 4.576682187274562 -1 2 1
409 1 6.971256841850578 12.94306835530147 4.327439944167407 0 0 1
86 1 9.944602002892438 12.316638401619104 4.9342318613688985 1 2 0
1490 1 12.148335299215699 13.502283457823882 1.157820513603202 0 -1 0
179 1 10.68225639088964 12.469384561119623 2.890741659450292 0 2 2
696 1 12.25388147318163 13.863221646181714 3.868355159322232 -1 -1 1
882 1 12.919624122477984 15.49599394774606 2.6049662583636994 1 0 -1
234 1 10.726174055143378 14.900920041421163 2.6827801578703876 -1 0 -2
1003 1 12.836057814280863 15.613677779415276 5.263075438038458 -3 -2 2
914 1 14.002713976357489 13.367813035410888 1.9813995133807822 -3 -1 1
2016 1 1.2726022147339915 17.56807233804897 2.7763417728685633 1 -1 3
845 1 3.4446367065947308 17.704126881203155 2.159128682555405 2 -2 1
1835 1 2.8796807179352673 16.479979763703632 3.988624872579718 1 1 0
464 1 5.076145409368852 16.514015807804 3.606674038623751 -1 0 0
657 1 3.632334455930308 17.859589644659426 5.239569375728829 0 1 -1
535 1 2.563289614584069 19.07864369288498 3.5465256114013983 3 2 0
342 1 4.807605043021532 18.51038576208966 3.791354124229592 1 -3 0
343 1 1.037498645165094 19.636884828839314 1.9369535446828783 -1 0 2
1948 1 6.866241764618689 18.08385395002966 2.291289336878454 1 1 0
1224 1 8.630968293772757 16.49071620281787 3.9354607489531372 -2 -2 0
851 1 6.92929293528661 17.750883492036298 4.61303161594487 0 0 1
1236 1 9.344671150342215 17.092801747902698 1.9972065596900443 0 1 0
749 1 6.747363459963986 19.813625968682892 3.6904832378944956 2 0 -2
1554 1 8.848255172795806 18.51922294334772 3.986246570197853 3 -4 -1
1034 1 5.480724246491904 19.504705078132375 1.234854816790409 0 -2 1
761 1 8.470517377422823 19.29983773794125 1.934563763261268 -1 -1 1
471 1 5.348083183563486 17.07244751130747 1.0577959553054221 1 0 2
1851 1 13.694639334847903 19.812111993617837 3.291827563554366 1 0 1
1739 1 12.1470898945736 17.682696066731154 1.7172404704430708 0 2 1
238 1 12.497644373889724 19.70615004991695 1.6067784575508801 0 -1 0
317 1 10.54742895393181 19.301627048135494 1.9679412791068362 3 -2 0
302 1 11.166262240705159 16.887928244915233 3.6739015401520474 3 1 1
1065 1 13.421907230997125 17.644521389684243 3.598028594003167 -2 2 -2
1298 1 11.67254575004746 19.010410586145692 3.5993849842208667 -1 0 0
1085 1 10.116275439432602 19.88261960281951 5.014366937349151 1 -2 -1
855 1 14.093917836704044 17.542371419071 1.4610712862459776 -1 0 1
1914 1 2.1876309777130207 21.653118271374368 1.6778952538841216 -2 0 2
264 1 3.469645127965852 20.02425619843929 1.8085609677051964 -1 -1 1
1379 1 3.742391186147895 22.920872856535656 2.6080346417550615 -1 -1 2
1345 1 2.5802330966861797 21.053759785180592 4.03014112242146 -1 0 -1
278 1 4.209819350068862 20.061345150884186 5.255000860187314 0 0 0
1866 1 4.213803980738389 22.412725333271247 5.026775067083088 -1 -1 0
1025 1 4.89272214045161 21.257334419512084 3.2429751122118518 3 -1 0
1850 1 1.812136636025133 23.199243723090664 3.5763642358740966 -1 -1 1
28 1 7.015434824693134 21.013670386816795 1.3225817942778786 3 3 -1
1868 1 9.057223576562558 21.61884687491297 1.478943698094469 0 -1 -1
2032 1 5.778651189933101 23.26679803941058 2.110712834309826 -3 1 2
142 1 7.389226881181915 22.07256817966359 3.2020115942168137 2 -1 -1
1991 1 9.123615547632799 21.170761026773942 3.6329350692443008 1 1 0
642 1 8.923033840227406 23.493810380435054 3.9104871084207122 0 1 1
897 1 10.931379913819256 23.130557728876834 2.9505118310048135 -2 -1 1
1190 1 11.023610732887551 22.032253559237507 5.018965039864831 1 -2 -1
153 1 13.043908080370883 22.32324491076375 2.0289516446152502 -1 0 -2
390 1 11.627813136729253 21.211126847066364 3.0841826751386363 -1 0 1
821 1 13.107539856550185 21.75299053270257 4.738334588611739 1 0 -2
923 1 3.575324147265964 26.85531775447336 2.9612771085772787 1 0 -2
1087 1 2.6426976679114906 27.263016041722675 4.628442015524515 2 -2 -2
374 1 4.8888752797372215 26.83333255844317 4.671329098730856 2 -4 2
1718 1 1.594629810658807 25.45803052028007 3.555014645179849 -1 1 2
1126 1 1.3197830389310257 25.88661514370354 1.6808477657711385 0 2 0
919 1 3.423451206234826 24.85659487968432 1.90703210772126 1 -3 -1
1992 1 3.639210954847718 24.55649171571561 4.1036190316795285 1 2 1
1588 1 5.177610503286161 25.38412603051814 2.832075040731787 1 1 0
1368 1 1.8746155867073384 23.81743879917098 1.2551979134973115 -2 -3 0
1135 1 3.7642514159739418 26.603486710060547 0.9244139514329675 1 1 1
41 1 6.330667189692451 24.993350855123328 0.8717924235700352 0 -2 -2
1317 1 6.130813267288247 23.759121238343557 4.484911555645603 0 -2 2
990 1 5.48110906540743 27.35789450886752 2.117677705860711 -1 2 -1
762 1 9.429222015789694 23.88155781166071 1.5858422637479688 -2 0 4
454 1 7.401403214415598 24.58262339220859 2.723607401856812 0 -3 2
1534 1 7.049511231145028 25.78617470588464 4.555339042931697 2 -1 1
569 1 7.524711083294642 26.98613585515635 2.622120116707497 0 -1 2
1405 1 9.073797684683074 25.537681119704033 3.784434845245602 2 -1 0
505 1 9.907990041579472 27.136521968969056 2.1211408699604863 0 0 0
282 1 12.718068937724585 24.45927175039061 2.173005864297887 -3 -1 1
159 1 10.68815487375214 25.154834209715577 2.450136374336495 1 -3 -1
550 1 13.28927489972237 23.938212098795685 4.192677989130182 -1 0 2
2 1 12.2548853265694 26.982094666125832 1.7169894125733538 -2 -2 2
961 1 11.341407019573328 24.342544325836368 4.717790269798832 -1 1 1
1937 1 10.831341655590855 27.222980675694643 4.076617701767814 2 0 3
423 1 12.69801784444161 26.182622974432082 3.6061670811606295 1 -2 -2
1922 1 2.8649148115914227 2.7547933979148675 7.3515646529342735 -3 2 3
34 1 4.049279650794428 4.522412321666263 6.305902939276987 2 -2 -1
105 1 3.7874628106296324 0.8528354128207419 7.004996582073428 -1 -3 -2
1731 1 4.05688424142807 2.0379547389383252 9.359694998865274 -1 0 0
991 1 1.8141255599132318 1.1114564483527043 8.631583013148747 1 0 4
833 1 2.2420487985514477 3.319860165346344 9.719316220397852 0 0 1
887 1 3.9305306175078734 4.1549324204998355 8.794353509131788 0 0 2
987 1 5.083394222304013 2.9343627407199744 7.46063999868733 0 2 1
720 1 1.4646135514579695 1.1601338802416574 6.737214222377342 0 1 -1
481 1 8.653225136210196 4.339370655177896 6.182376322700463 -2 0 0
1562 1 7.071272302314607 2.570235741334219 6.042730994090407 1 -1 -2
441 1 7.034497398756506 3.8236731900172516 8.025488337401711 2 -1 1
356 1 6.761871771624892 1.691176633161856 8.260576957220092 -1 0 0
47 1 8.855156808381597 2.4973386355638327 7.7821130229776525 -1 -2 0
826 1 13.461450695589388 3.547126231759576 5.7483427095096875 1 0 0
1578 1 13.84071449049796 3.311773460115257 9.607675580743459 2 0 -1
858 1 9.789467662719188 4.634705012344504 7.927425542754454 1 2 -1
1875 1 12.726936496344338 1.2025877385461197 5.380287526519705 5 -3 1
94 1 11.789320636568172 2.8352137883771884 7.022053120978443 -2 2 0
1189 1 9.768797433465652 2.502147916015937 5.825265712367328 0 1 1
1176 1 13.834746672355475 2.6590908782747915 7.729112273456702 -2 -1 2
82 1 10.841843786821668 4.5389681732751 6.252405659463452 0 0 -2
659 1 11.886501293204534 1.1209836794852233 8.183070748663326 2 2 5
164 1 10.505730659930618 2.6196049092074647 9.355349223672492 -1 -1 2
1205 1 1.676586866430965 6.71325002461548 6.617562569077514 0 2 2
789 1 1.8864872162213642 4.797402934286612 5.505637277931842 -1 -1 -1
632 1 2.3672803484102443 6.845097671222727 9.069228877016414 0 2 2
186 1 2.0860156055602452 4.663798255347469 7.913738979397173 -1 1 -3
42 1 3.67085294995188 6.336431142689098 7.264505106480639 -2 1 -2
311 1 3.002870937196921 8.19155957572445 5.732417385834665 1 -1 0
889 1 5.111875772466288 7.545951209724904 6.633568240351921 2 1 1
171 1 4.553711281824656 7.069945188005194 9.00793674922716 -1 -1 1
712 1 8.526582133595584 6.793900927629409 5.372183696877565 2 -1 0
790 1 6.106553684746666 5.3310106031147555 6.915598076498234 1 0 -1
463 1 8.089067625485534 5.892100636673327 7.2321811169166486 1 1 1
1090 1 6.761552384229884 7.136279720677905 8.310542864068008 -3 0 2
1655 1 8.360342094188432 8.362740429329756 6.832602611016772 1 -1 0
1266 1 9.250909036294864 7.189782206553649 8.848002575453146 1 -4 0
1994 1 5.625831015875987 5.324451161055362 9.052417676617535 2 2 -2
516 1 7.735712282351534 5.323525671810531 9.565520352849932 -2 1 -1
579 1 10.155732205158538 6.793490451324605 6.829800950391841 -2 1 -1
561 1 12.575469729489411 4.779911011939754 7.537392823117406 0 -1 -2
1661 1 12.94648701277057 6.25669511682771 9.040545886928635 1 1 0
395 1 12.136360197178208 6.8265456253508985 7.01140105212669 0 1 0
487 1 11.041562070592342 5.953957633816664 8.792338704054004 -3 -1 2
1167 1 14.043435005534818 5.55363198317371 6.10120016105478 -2 2 -1
201 1 11.726974723481074 8.253395273321361 9.310910577950764 -1 1 0
1213 1 3.6312908153045975 8.752116072243917 8.156168254809746 0 2 0
496 1 1.839506798275232 8.864881384257648 7.261367024554351 -3 0 0
1603 1 4.519292399213571 10.449379911103973 9.01596141736627 1 0 0
1226 1 4.153228305899305 11.373082380863126 7.112828153363552 3 1 -2
307 1 2.4136017418387734 10.86496203622698 8.148682015121253 1 2 0
1575 1 2.536172123255156 10.677833250725893 5.387949615528806 -1 3 1
994 1 4.752820296012363 9.51671206624609 5.961091221035292 0 1 1
50 1 6.425139097103755 9.28403730407003 7.402289452758468 -1 -1 -2
1600 1 9.016456239243963 10.47641506093506 7.725637705558179 2 2 0
1646 1 8.312819638613247 10.80232341422212 5.738463002758317 1 1 -1
478 1 6.310556729070873 11.362287788538705 6.120063077171948 -1 2 2
1860 1 7.087832025506483 11.132280409758248 8.634858414721418 0 -2 -2
707 1 9.008523912039502 12.093534145364744 9.290295272108478 -1 3 -2
1273 1 7.675567708785944 8.979646842181852 9.059885728139536 0 1 1
1393 1 10.69900421775356 10.47683664175372 6.170469276173971 0 1 2
1414 1 11.499384802183778 8.80268958189607 5.338079339103803 0 0 3
346 1 13.775687471195056 9.307868616934522 8.949863187368729 -1 0 -1
1785 1 10.183378316739695 10.268358472299486 9.555979662812192 3 1 0
1291 1 12.617255754166205 8.91369547264625 6.9184856245491675 1 2 2
701 1 12.250300042183133 11.520338224296951 7.093092619778974 1 -4 2
397 1 10.518423389693348 8.929477176099182 7.690866251895283 1 -1 1
1061 1 11.964952729180869 10.342270017435306 8.559631675294057 4 2 0
127 1 13.332771613373986 10.390506024939933 5.481954678738615 3 0 1
101 1 3.448175566406013 13.560352619371923 5.35276191068227 -3 0 -3
687 1 4.523565152309303 15.396748542373665 5.41844837924763 -1 3 2
4 1 1.6090412749129366 15.0215100648956 5.338234022073603 1 -1 -1
759 1 3.4483377938785194 12.439830000817459 9.577415958236871 0 0 0
176 1 1.0669854672949997 14.285294123445324 7.449458956644975 2 0 2
1463 1 1.9113516606687404 14.068100610129225 9.525705591360364 2 1 -1
258 1 2.1256960341526616 12.521351835051139 6.708508660264738 -1 1 0
1175 1 3.420441352765359 14.050093492132024 7.459368169251568 0 -1 -2
883 1 2.857313366811242 16.04215829263253 6.525441651911451 1 0 3
546 1 5.100390291038386 15.557374277614246 7.523000010107573 -1 0 0
324 1 3.1158550273751526 15.863184863556837 8.879999126531217 1 -3 0
316 1 4.6208690345026895 14.17412548539694 9.429246669128794 0 2 2
1198 1 5.55900862890266 12.655357596513966 8.362498849064583 0 0 -2
69 1 5.295361217322083 13.232400594999534 6.249560705156907 1 0 -2
1653 1 6.28044690466426 15.786435323161424 9.50260931805059 2 1 -1
371 1 7.63916040640388 12.775641579453746 7.36010835710995 1 0 -3
219 1 9.639720590526958 14.473359945489717 8.883202977307942 -1 1 1
1844 1 9.118473308845527 13.965182996474786 6.389585449919224 -3 1 1
1510 1 6.693317314575417 14.6926721159519 6.576219744520615 -2 -2 0
1452 1 7.315718624617555 13.795322917573635 9.180522530343596 -1 -1 0
2043 1 7.9290341309250065 15.695145726012067 8.0471763285674 1 0 -1
1102 1 13.573760207407384 13.570452808048643 5.858919710711837 1 0 -3
1790 1 10.470832597067051 15.695099659171245 5.387159380674827 0 0 2
868 1 10.51067342137403 12.332037987972129 7.671427463748044 -2 0 2
1819 1 11.590182476058875 13.741312348776896 6.079826342271042 -1 0 1
1780 1 11.897237322895268 13.55925347471751 8.610973977834325 0 -1 1
777 1 14.050294029091232 12.832990871651958 7.756872811322995 0 -1 0
1682 1 10.78503542502293 15.133569267051557 7.381368002292215 -1 0 0
1509 1 12.980577826330874 14.888459434708569 7.523001860083613 -3 1 3
1887 1 1.8976343367625352 19.535810170466892 5.879291564900765 1 2 1
1239 1 1.467530496644156 17.472659734022507 5.405528105538774 3 2 3
610 1 2.4655833794925073 17.799180723887737 7.7381040493779345 3 -1 0
1394 1 4.5125507522644845 17.49389645281927 7.601594738820571 0 1 -2
11 1 3.5918140496988022 19.383228754503058 7.084590307866674 -1 -3 0
144 1 0.8437103088794204 18.395786113764643 9.050894146797848 2 -1 -1
81 1 3.2668594727941977 19.078055338110897 9.522513820424892 -1 0 -1
699 1 1.0236026143415948 16.1763303924869 8.916962219589669 -2 -1 1
1406 1 8.173682631334376 16.283217482411246 5.955481392712327 2 1 -1
305 1 9.544862364640958 16.916066412390713 7.366124579249829 1 0 -1
767 1 5.842163545320344 16.94446200116013 5.913705057958995 1 -1 1
922 1 6.167063219320113 19.245433695496587 5.912598169083323 1 -2 0
57 1 8.471378063050118 18.612307205635084 6.870153646735363 3 -3 1
853 1 5.389886507259614 19.441096909776928 8.136570295994048 -1 0 2
1096 1 6.809711204002159 17.771170476596964 7.965928788481471 3 0 1
1408 1 8.9389194052894 18.475821784967035 8.89958778660846 0 1 1
676 1 13.863306940255052 16.76302387143442 8.483733506269626 1 0 0
1321 1 14.09308882248092 19.522486724928026 5.316268353825635 0 1 1
1621 1 11.6284584466953 16.20923987463169 9.461051846476382 0 0 4
809 1 10.828975467222442 19.51208406533938 7.079946505305304 1 -1 -1
1378 1 10.239690803620778 17.8733103258019 5.627406931098855 1 1 -1
1694 1 11.918877058951415 16.974253094661865 7.2839650103995695 0 0 1
1193 1 13.076161215677098 18.81775325066374 7.340832964674133 0 -1 0
1108 1 12.709745130861185 17.79957282989637 5.537821333259928 -1 -1 -1
495 1 11.040778768783529 18.20806021644679 9.216436854320788 1 1 0
2011 1 2.1168981810563947 20.137331147807497 7.96204497506384 -2 2 0
178 1 2.190512060717676 21.886970256450407 6.000393451592204 0 -3 -1
1684 1 2.8651137743918995 22.218634869222406 8.36809247915926 2 1 2
1640 1 4.5437038784282855 21.28348481331718 7.164594739476292 0 0 3
293 1 3.7072798407652847 23.652716293132244 6.654543725422465 0 -1 0
1287 1 4.797616766689266 23.038288418180343 8.71516582699956 -1 -1 0
173 1 4.15251525116102 20.987854754798448 9.585392108655556 -1 0 1
706 1 8.499357567656926 22.14042437689638 5.488112747814543 -1 0 0
1051 1 7.311319668940887 20.40383056358347 7.467928771605648 2 1 -3
1055 1 8.177211089209226 20.12427276439586 5.387756611857059 2 0 1
2033 1 9.25711559349144 21.0962521345521 7.912725871502514 0 1 -1
217 1 6.267130469451072 21.459004984052946 5.308096929096806 -1 -1 -1
428 1 8.008652119394629 22.621425136450245 7.469908513345127 0 1 0
31 1 6.203712251129275 21.479289106914248 8.995911716878688 -2 -3 1
1346 1 6.136579582175522 23.0918872575194 6.787564638752182 0 -2 2
279 1 7.838715608220911 20.134833206776104 9.627505228209811 -1 -1 1
1049 1 8.164645824680488 22.3814649522377 9.63410605402481 -1 2 0
1553 1 13.604483042756913 22.171470188914025 8.94852448843125 2 1 -2
1275 1 10.12615040332978 23.34889442151534 6.516110635067753 0 -1 1
1451 1 12.72203294199514 23.63020577196575 6.630053744966555 -1 -2 0
1939 1 10.132293602460503 23.207802120975323 8.670004511193142 0 2 0
786 1 12.126615398086585 20.09814040004837 5.772424971605511 0 0 0
1100 1 11.426061885067153 21.89674664128348 7.538035264951604 -1 -2 1
630 1 13.61251989637515 21.136486543541093 6.894474678129097 4 2 1
1735 1 12.315484722055906 20.335754552668803 9.03280917115419 1 2 2
1817 1 0.8976702180263274 25.85064566865424 8.002159680305871 1 1 0
803 1 5.13813528045427 27.071581629346003 8.411840675231696 1 -2 -3
1133 1 1.9848450320082307 24.01037334500009 7.773210823435054 0 2 -1
935 1 1.612438078919543 24.07896580200621 5.751857972598709 -2 -2 1
1849 1 2.8950112685155287 25.69249770816339 6.214323571581704 -1 0 0
700 1 3.04562499965272 25.91666512490112 8.315550500480807 -2 0 0
1230 1 5.230264789849617 25.029338635085445 5.710045869069217 0 0 1
449 1 5.054661736690427 25.014499292339796 7.728616047724176 1 1 1
345 1 7.73271601137557 24.387068727660836 5.915337361434398 3 -1 2
175 1 5.963344552992874 27.27113997307963 6.2498949052925 -4 0 -2
1669 1 7.334682042589096 25.85628423971329 7.254158061253568 2 -1 -1
557 1 8.923998348083302 24.65836551658093 7.800282996401286 -1 -1 0
1179 1 9.600995556037484 25.75898275438676 5.768017234001329 1 -1 -1
83 1 8.258813572907702 27.436269003981703 5.887423819787893 -1 -1 0
174 1 9.138337139953885 26.908914133463718 7.9631902021321785 -3 -3 1
1610 1 6.671236645530047 23.94063925576326 8.712329937490631 -3 0 0
340 1 7.7860795175983295 26.304322182740066 9.536623458898475 1 -2 4
1438 1 10.916273967196641 27.488026259722922 6.326561881131921 -1 -2 -1
1719 1 13.863361075077052 27.16831662286901 7.3408964144113895 0 1 -1
206 1 10.058242915201886 25.030105808292692 9.611429240829365 0 -1 -2
1521 1 11.20061525137713 24.990158684439393 7.113300525021246 2 1 2
1212 1 12.050846582251067 23.79430644107152 8.858177991879282 2 -1 0
109 1 14.081084317487164 25.135403607926435 7.5862334853182425 -1 -1 0
874 1 12.76134889851406 25.72934593146899 5.768879931923926 0 -1 4
1502 1 12.111307153206944 25.83585236246304 8.947349253682063 1 -1 0
1047 1 10.11154082980556 27.128559957864532 9.67887615369286 2 0 0
1552 1 14.050428494723397 27.29267152305636 9.514782781193226 0 0 1
239 1 1.0206228598471838 3.6776154004613515 11.863837017651903 -1 0 2
1440 1 1.6397783281436413 1.6459558360343665 10.65540126219641 3 -1 -2
1127 1 1.4261822066329333 1.4117303292132921 12.854966029555365 2 2 0
1639 1 3.7452844243328656 1.7691537849886703 11.46504918317919 -2 2 -1
184 1 3.528416315764512 1.785229436024951 13.659533888242969 1 0 -1
1988 1 5.184686445035998 4.567410396656385 12.994239347000256 0 0 1
1057 1 4.371946610758417 3.7565895862635528 11.214705557997734 -3 1 -1
1389 1 2.989696289688504 3.50716116991169 12.622372637175424 6 2 1
1185 1 7.125100677013419 3.7064128185979794 13.47533777397013 0 2 1
381 1 5.803737365362906 2.2314191555894927 12.749938923863809 2 -1 2
571 1 5.88802697227031 3.1463857510370725 9.87310159493433 3 -1 1
1778 1 8.59192015172222 1.6483344182045516 9.997682649164542 0 3 2
408 1 7.754573998475088 2.539719721478469 11.886715888231835 0 1 3
1556 1 8.86633642941173 3.7476996257300543 10.085261769647438 3 -3 -1
235 1 9.460672910881046 3.1101833821180844 13.444450644317323 2 1 3
1458 1 11.934217926922985 4.409018754174264 10.181808878295676 0 1 1
1348 1 14.154180528445753 2.4323632610126515 11.565803532938135 0 2 1
741 1 11.815096481613207 2.5464570662208414 12.748682485956406 -3 1 0
1174 1 12.283502393581134 2.2824545197312003 10.320326301138115 0 -1 0
1672 1 10.5119786544378 3.5025630678009647 11.528461205602808 0 0 -1
519 1 10.067260971041417 1.4893383331352923 11.878144702246423 -1 1 1
490 1 12.388965808529353 4.452557276332241 12.309603048207357 -2 -1 2
248 1 13.40365890598476 1.5348769974914473 13.617400473467473 1 2 -1
1320 1 1.1213787987221309 7.230623077092728 10.973813623262945 -1 0 -1
1744 1 1.2810386009332482 5.1254997914723015 9.961328716133938 0 2 -2
451 1 3.4672230159906676 5.4136064652571925 10.293394179668445 1 -1 -1
1854 1 4.196451217360233 6.648184878230139 13.134702408198336 0 2 0
1923 1 2.2572344687899557 5.5785760658321655 12.064277973684336 4 -1 0
2048 1 3.1288075189724855 7.518871928753975 11.377416295408272 2 0 0
1381 1 1.3441116904840102 7.92500034581865 13.116459550819286 0 1 2
1086 1 1.495151232189182 4.762888311387711 13.922408613774254 3 0 -4
99 1 6.666613832013337 4.70250002733988 11.271771002436372 0 0 -2
931 1 8.695202721206604 4.733424096479375 12.130986178626431 -1 -2 -2
221 1 5.4268592534392965 6.486619779144391 11.284603790045916 -1 0 0
1871 1 5.759585678157613 7.761451011329124 13.68527713987655 -1 0 0
2009 1 6.800826081644259 5.927774467500126 12.872008217061078 -1 -1 3
1680 1 9.697805021248026 5.783971573419447 10.383711335686277 1 -2 3
267 1 8.709532046870297 6.933135383084266 12.161129889338525 -2 0 0
832 1 7.371986001726452 7.183488648546617 10.379143827375025 1 0 0
1140 1 8.109206839169612 8.184602741768156 13.74588184330872 2 1 -2
425 1 8.548967512945598 5.525784289564026 14.157963817060152 1 1 0
1899 1 12.343267877395732 6.7391538382885114 13.175502031567357 -1 -1 1
1711 1 9.774379448955148 8.244103123497808 10.458210016819088 0 -2 1
1166 1 13.323271444122781 7.90847821855133 10.642578466052566 -2 0 1
1027 1 10.514324918704009 7.799593780381013 12.598997456640435 -2 1 3
353 1 10.49666042151301 5.2836135457166735 12.91528289153727 2 1 1
1293 1 11.709219536820385 6.428691669028127 11.111495480776084 0 1 -2
1182 1 13.826674436232718 5.442241587511896 10.738583079056182 0 -2 -1
1048 1 3.687321069968657 10.322688504992211 11.169122478363025 1 -2 -1
784 1 2.317629236922678 9.129136072170605 9.85624141806879 0 3 2
946 1 2.187672704450123 9.8511605077719 12.571123077756774 3 -1 -1
1033 1 4.934046590311721 10.771336371750168 13.08612368616061 1 2 0
1732 1 1.936250153765922 11.438199536015263 10.640031514721747 1 0 0
820 1 4.636342524247791 8.584043935369053 12.244804356599042 2 -1 3
862 1 2.1547610850565855 11.992075984765265 12.997542934189719 1 -1 1
677 1 6.996875901583538 8.871978832135166 11.899659647293644 -1 1 0
1011 1 7.272646460153458 11.00872727818717 12.809939233239922 0 -3 1
966 1 8.192077011050563 10.427071366219021 10.471462629252086 1 1 0
1686 1 5.556203087625171 8.595269058419355 10.05642525865106 0 2 -1
1310 1 5.903011742933117 10.331753105406728 11.044348661760429 -1 -1 -1
619 1 9.201345461339523 9.362283842771395 12.41876178641026 1 2 2
240 1 9.184531677451606 10.54137370055765 14.139690500792193 1 -2 0
1441 1 11.038543705407479 9.694527484954689 13.35895192927861 -2 1 2
1142 1 13.484479437510233 11.64806639192807 9.823688131198466 -1 1 -2
1662 1 13.994895724482717 9.934737515758355 11.192725425584362 0 2 -2
246 1 13.596975459503389 8.577772519640893 12.906570723698296 0 0 1
713 1 10.087420260499218 11.308461658495018 11.619206795378238 -1 -2 -1
1815 1 11.699811274484285 9.522272816708304 11.466936706270356 -1 3 4
1613 1 12.504642140104341 11.573529098387482 11.820324175359382 2 2 -2
1316 1 11.465450880943367 11.943167696928791 9.90327551116465 2 -1 -1
1961 1 12.76478211387208 10.382969776733214 13.879524586898842 0 -2 2
1404 1 1.2656696748926577 13.507784026272072 11.48852923477387 -1 1 -3
1419 1 2.3367119958022684 14.21414925594837 13.267627657486905 0 -1 0
1322 1 4.83256682433342 14.990773462105691 12.993587663096763 3 1 -1
370 1 1.392676960176123 15.420388316691245 11.130111655919617 1 -1 0
684 1 3.749642272510001 13.038315651605972 11.837906798902777 2 1 0
172 1 3.8283668371950426 15.287113557139731 11.015965793375715 -2 0 0
453 1 4.141286947324307 12.943788825580894 14.054615700950395 4 -1 0
1203 1 5.532395755926424 12.36258463074361 10.445444230476081 0 2 3
865 1 5.716343497541139 12.469219428067884 12.463426731243937 1 -1 -1
582 1 6.765727886479005 15.839630530471586 11.997991794001763 0 -1 0
1010 1 7.939422078286292 14.1089992441286 12.330882015125662 0 0 -1
1644 1 5.770046462236989 14.220795257469735 11.197203350836153 1 2 1
211 1 8.150439125377464 15.095749137724077 10.551738899059716 2 -3 -1
1202 1 7.507802532826106 12.470486118133127 11.03996640260488 1 1 -2
564 1 8.806555552354386 12.269254411041302 12.755554823786264 -2 0 0
710 1 7.681851622717838 15.005773300666986 14.066375683237231 -1 3 1
912 1 6.249688923400844 13.405299514735859 14.160406966741355 0 -1 -1
1617 1 9.794225111798475 13.615373420274993 10.66845412619244 1 0 1
1787 1 11.71595435242747 14.364075047595632 10.773537131589121 0 0 1