LAMMPS data file via write_data, version 29 Oct 2020, timestep = 300000

2048 atoms
1 atom types

0.9198514974048813 27.43214850259173 xlo xhi
0.9198514974048813 27.43214850259173 ylo yhi
0.9198514974048813 27.43214850259173 zlo zhi

Masses

1 58.933

Atoms # atomic

1052 1 2.1732878968012455 3.6380439727020195 4.299198532089823 -3 0 0
1230 1 1.7534425843449812 2.2154204581932095 2.7341059414731586 0 1 3
387 1 4.030205471629499 2.879794882416807 3.6151049767007866 -1 1 0
1849 1 2.993679380688327 3.6572879447492554 1.7820254425117654 0 0 1
907 1 4.695064791059442 4.500796973206828 5.046316091031594 -1 1 1
1431 1 3.5099504008290716 1.2603917403564453 1.864485478461452 0 1 0
97 1 5.199577611127513 4.4574422686067106 2.3631147930093546 -2 0 -1
785 1 1.1158560066409 1.8608943546254082 5.245344567404286 4 2 2
1963 1 3.271097256942019 5.143648619500728 3.2308528518600865 -2 -1 2
1269 1 3.0927854811516124 1.1453591690834923 4.44185631829289 0 0 -5
826 1 1.1245778665861834 4.531721736627507 2.4921562201934346 2 1 1
567 1 4.837534493658905 3.0496956750879853 0.9974915557631512 -3 0 0
1611 1 6.55938989175777 4.010209047605174 4.118745879972479 3 -2 -1
363 1 8.304052590973264 3.1913975711966467 3.1056096179264636 -4 1 -1
2041 1 6.010929873602823 2.287279030603398 2.810892779555669 1 0 1
224 1 8.629326965780038 4.7376043038285856 4.758422573550503 -1 -1 5
314 1 8.110756424831212 1.3719987740460957 1.5813112015092707 4 2 -1
1038 1 7.130982181282875 1.462575591137408 4.481553496291955 -2 1 1
918 1 9.46565171669508 4.786933769745688 2.13350512739546 0 -1 2
945 1 7.111683012976752 3.694868374780739 1.540637055418916 2 2 0
1577 1 9.822574294675817 2.232451131080377 4.5453117058963475 0 2 1
1566 1 10.56728533497775 4.177101978461939 4.055927462066242 3 1 2
1190 1 10.196547070556496 2.51786665927096 2.396878192919154 1 -1 -1
1404 1 12.240345752873951 3.2163618352391774 3.113134602265937 -3 1 -2
400 1 13.00680841755869 4.723378472777288 4.646330344119198 -4 -2 0
297 1 14.030938926703826 4.568813448321614 1.9236421297206887 -1 2 -2
341 1 11.785553970500093 1.147773778770247 3.904025083789727 1 1 1
744 1 12.017444999314197 1.8213214722756597 1.5117521426867382 1 0 0
268 1 11.403732181732376 3.9435792495316226 1.3157232871122084 -1 -1 -3
517 1 13.852405685210059 2.141032442653973 4.41033760768541 1 -4 0
880 1 14.12870314089495 2.3534707383181086 2.1695245330902138 1 0 2
1807 1 3.6137417006074424 6.6980619996112525 4.879439378894329 -1 -2 -2
125 1 2.7496755209084345 7.69579214473704 2.9531505516498773 1 1 0
128 1 4.641976785718418 6.8825713867990945 2.2900680414191106 1 2 -1
59 1 4.919406396599316 8.584802000422286 3.6962843730273214 3 0 2
1180 1 2.161998685727797 5.972808766357593 1.3677211026046356 2 -3 2
1646 1 2.6629613502952942 8.974406909322653 4.500238259176497 1 1 -2
1034 1 3.5065139447672875 9.477740553610506 2.033374072703517 1 -3 1
1150 1 1.3558341425425318 5.774350804203567 4.411825000282748 -1 1 -1
540 1 1.0199465514672748 8.306242854807767 1.4575088484498573 0 1 3
684 1 7.477607665158685 5.424770933615082 2.9600969848369503 3 1 -1
417 1 5.619180870608662 6.143622062236146 3.9364854316220894 -2 2 0
1706 1 8.606585451431663 7.287846374469303 1.8783851558282938 0 3 1
1946 1 6.559866349464543 7.93244662906768 2.7440740670558075 -2 -4 1
1855 1 8.041952799221562 7.250886131648767 4.53286469373627 1 -1 2
222 1 9.157513749551462 8.76868177325344 3.6284583727799813 3 -2 0
415 1 7.643174560459387 9.467326518079384 1.613618260899564 2 0 1
1358 1 7.1034885866360415 9.290411006728826 4.519236321030077 3 1 0
1378 1 6.4773630695059055 5.883539290854756 1.3123931369690438 2 2 -1
468 1 5.430405459140951 8.684835425149231 1.0661006066770007 -3 0 2
407 1 14.165269998785188 6.351817343409974 3.19776363839711 1 0 -1
429 1 11.997541044523105 5.3444754416619435 2.721203314028595 2 0 2
1658 1 10.028375649833357 6.284713882524788 3.6943130293909947 1 1 4
1289 1 11.964215805415387 7.007912692545583 4.347835579462018 -1 3 -1
403 1 10.756160432325435 7.736180368489881 2.327910292548722 -2 2 -1
633 1 12.742376401055955 7.298792185462731 1.4459023769396349 0 0 -2
1188 1 13.172574036032143 8.809225665380287 3.077831164993044 1 2 0
92 1 10.166906833894995 7.907811817717163 5.227955662884303 1 -1 -2
1014 1 11.129699049358027 9.31346028216856 3.9478735543743997 0 -1 1
1403 1 11.774955229368143 9.563606323458451 1.477861150653155 2 2 2
256 1 1.1318048850706484 14.00853998205599 4.371428389285737 0 1 -2
329 1 1.5063371204621854 10.251077565250487 3.1595298818584245 1 -2 -2
839 1 3.9518452150424843 11.021560871538126 3.7105142274235483 2 0 -2
890 1 2.209934098674176 11.743009066598079 1.614375839494251 -2 0 2
2017 1 2.86498752377105 13.053375368645678 3.2665611156800836 0 1 2
909 1 4.699346215080152 12.863737378849827 2.128394585445875 1 -2 -2
1096 1 1.8944552920008175 11.823554583394962 4.602188015366105 3 1 1
929 1 4.259863581189455 12.666674722011717 5.273271260969592 2 -2 -1
889 1 5.255346127350732 14.172457249388138 3.9447651781433284 2 -1 2
1498 1 5.180836495019126 10.055226295501047 5.183721780798561 3 3 0
2018 1 5.741315146965677 10.395364215963891 2.6509351679539868 -5 0 1
1388 1 7.930729173841473 11.005718051629596 3.150825201648373 0 -1 4
910 1 6.598048336799161 12.140680561279249 1.370730833446607 2 -1 3
1082 1 6.197007531832246 11.898786834084857 4.219251784662049 -1 -2 1
1585 1 9.127207112546719 13.020431763994218 2.0449051873372257 1 -1 1
152 1 6.984045674117599 13.705024263874616 2.759178286736243 -2 -2 -2
1726 1 8.40167347254738 12.70036791224912 4.451026779263108 1 0 2
1275 1 9.118804206758792 10.360077452392662 5.0086000143027425 1 0 0
1906 1 9.988773445636516 10.373993890691192 2.497703159184131 1 -2 0
1928 1 13.569248098707112 10.429774022629923 4.716536848817575 0 1 -1
579 1 12.272868356056915 11.190171085646917 2.8754880479395464 -2 2 -1
893 1 10.523465893979186 12.003091993962451 4.193201856633211 2 1 -2
1270 1 12.722777399006338 12.858037813408487 4.6591270678478 1 0 3
1965 1 13.17903971816153 12.948248186193986 1.718758584479291 -3 1 0
1003 1 11.256771931315415 13.474497222504823 3.0852543206450473 -3 -2 2
1500 1 10.814941109970848 13.957976581076577 5.2551783718650045 -1 6 3
899 1 10.805255329416896 12.132287072455721 1.2542460665612447 1 1 1
61 1 1.1329774612988628 18.266698318865462 3.151791961288287 1 -2 1
805 1 1.6803498838609656 14.305811925078416 1.1645372232052886 -4 -2 -1
1760 1 3.9942124324171417 15.2388718547562 2.375114078587117 5 -2 -1
42 1 2.079653036793279 15.68650827897695 3.194727062448247 -1 0 -2
1347 1 3.0636936438924933 17.444777935115805 1.9951834727706503 1 -1 0
253 1 4.085080235188407 16.760868915185092 4.063951077457868 3 0 3
1765 1 3.36481580450112 14.778735849298572 4.74300514523099 1 -2 2
1061 1 4.901298614744586 16.790093810053207 1.1827376565957775 5 3 1
521 1 5.236658694688044 18.248988896748394 2.871665309603925 5 -1 2
897 1 2.0852654413361225 17.43741812183742 4.680557965278416 -1 -2 2
1176 1 8.047433615816454 15.402431716840677 1.8814336840950405 -2 -2 2
574 1 6.141047430666312 15.966634307178277 3.0118319258002346 0 0 3
965 1 8.931776845329287 16.69735007994141 3.427492343949622 2 -1 1
1435 1 7.2374974207266405 17.934186522959617 1.9456921462246637 0 0 -1
477 1 7.088818878911729 17.649276829316992 4.278939516177111 1 1 4
1901 1 7.4115141530558155 15.132577907404794 4.517043034421597 -1 1 0
1399 1 5.532958834140061 14.48924518873113 1.2772121310417985 0 1 -1
336 1 9.22173892800929 14.60600958980782 3.602230833127721 1 -3 3
242 1 9.578333723874728 16.996774468475255 1.0751719639348138 0 -1 2
230 1 9.985667319108199 14.679452606384917 1.0458616561478324 -1 -2 0
409 1 12.384365762803366 15.430069860714331 1.3844133813240376 1 0 3
189 1 12.403526122016888 15.294653715653629 4.581204035462742 0 -2 -2
288 1 11.199539331891204 17.54422158444577 4.288317124487735 0 -2 0
904 1 11.83876372023004 17.631327220309327 1.6634522932916536 0 -3 0
496 1 10.84590680080717 15.786308020244821 2.848805487834628 -3 0 1
1833 1 13.127827445231672 16.873592959819163 3.121802406628387 0 -2 1
426 1 9.984483010915802 18.4374146770872 2.6468464748909684 1 0 1
787 1 13.75520532967333 14.434213442996931 3.1081239220392916 -1 -1 -1
418 1 3.3113229076791213 22.003793736188722 1.2856017704902025 1 -1 0
1630 1 3.5037276719457036 19.24493782787253 3.8564577122797026 -1 -1 2
194 1 4.0530072736018194 19.428586513275388 1.4566186257332943 0 -1 5
1857 1 4.705783714865621 20.98681683150023 2.960147641600463 -2 -1 2
800 1 2.4728763644532084 21.603162033066056 4.235442733937727 1 1 -1
1917 1 2.1789293499098608 20.382810276490666 2.1767182787958017 1 -1 -2
408 1 1.2396393049681786 22.641059358738325 2.3063072589069264 -1 1 4
682 1 5.048832133189007 22.51609771488633 4.570551680914127 2 0 4
371 1 1.4710359645741726 19.841758807401284 4.9612026157978555 -1 -2 -3
250 1 1.244823137345423 18.800143391749884 0.9326062295876696 -1 2 -1
43 1 8.53261898587382 19.710029986228 1.347906954264232 3 0 0
993 1 7.677886718781774 22.36108650342287 1.0950296738537484 -1 2 2
1682 1 9.24604205903435 18.70105129601069 5.08647174698424 1 -1 0
878 1 5.698955622226488 22.767509964732625 1.942698178156927 0 1 0
545 1 5.940383630575376 19.975367070010687 4.353552379479881 1 -2 1
220 1 7.847502911588109 19.440471184174978 3.61456466213024 1 -1 2
1029 1 7.100789197923158 21.859139941686323 3.7130598713210556 -4 -2 2
1158 1 6.604110661187733 20.30341753254019 1.9975158887374953 0 0 0
1463 1 9.069035584551472 21.26302281060276 2.8617477870495254 2 1 0
940 1 9.26796873265407 22.896792125273947 4.509560485204124 1 -3 1
255 1 8.391314573956354 20.989052750984115 5.165739871751033 -1 1 -1
1540 1 13.62335476392344 18.72991208629613 4.728305099977685 0 0 -2
350 1 13.402687817344436 22.644812219958624 4.193662054712356 -2 0 2
1891 1 10.472255088731394 20.068146847433226 3.9804200782488204 -1 0 0
2042 1 12.207222420418322 19.104010239324754 3.15463198407947 1 0 2
481 1 11.007249901013965 21.982648417210246 3.395984859404147 -3 0 1
865 1 12.580806681965539 20.669178543950704 4.806773861415181 -1 -1 -1
707 1 10.90728772372935 20.158771612089073 1.7451553062688976 -2 3 -3
1667 1 13.098168942523444 21.066663296988544 2.3765228163341057 -1 -2 1
1078 1 11.525724822167582 22.064536248341252 0.9597479955641575 -4 -1 -1
1167 1 1.3608679322342825 26.875725815187458 1.0602028878537846 -2 2 -1
1932 1 2.4724680627343756 24.357189257873927 1.3515512422377358 2 -4 1
874 1 3.6068074361979687 23.06121913624719 2.930306474664224 0 0 4
159 1 1.8877129220734137 24.313000853465713 3.744734252861677 2 -3 0
736 1 2.6752770649455906 26.20776435627542 2.8970362803968337 0 -2 0
888 1 3.840432021372569 25.043759204834835 4.486366096016642 -1 -1 -1
838 1 4.543515580498233 25.11088201903205 2.141998464506738 1 -2 -1
1958 1 5.028597855088335 26.842830909309843 3.4319085450725684 -4 1 2
1278 1 9.745493620091006 23.259107774809063 1.93861449017913 3 -2 -1
1365 1 5.990745425289075 24.349652236810886 3.8120186693906355 0 -3 0
1410 1 7.061570431882143 26.177499023802024 2.8323561316662484 0 0 -1
1239 1 7.769629673476985 24.016833177949966 3.029305116778877 3 1 4
1581 1 8.44027990691395 25.40777696940753 4.249624645910113 -1 4 -1
1171 1 8.690839260784234 25.411776186480544 1.3833962172232463 1 -3 2
383 1 9.469674870370621 27.006857438972506 3.186533910322395 1 -1 2
734 1 5.466083622992799 26.897329019350586 1.2491526290604076 2 0 1
183 1 6.679125813250095 24.56253945809434 1.1955321539072739 1 0 2
1162 1 13.44298627196588 26.665124114036896 2.686122095334764 1 2 -1
531 1 13.442273530396983 25.022555960328365 1.3246636431717962 2 0 2
1310 1 11.448777747473473 23.49145218021709 4.959890519776167 -2 -2 -1
362 1 11.268041133170032 26.201203650559318 2.261979342585774 -1 0 0
1453 1 10.243464926330427 24.559333322346273 3.4415233212556573 0 -1 -1
319 1 12.218395509148042 25.47628209168728 4.057919087717632 2 0 -2
1112 1 12.248176456315141 23.654729674454337 2.5281476511546455 1 -2 3
1638 1 10.483566716681075 26.16191660049144 4.9201850197296615 1 1 -3
1202 1 5.253989799857384 2.1510780892719734 5.378738282539753 2 2 -3
1446 1 1.6756857900552882 3.6019736767392914 7.136823317625044 -1 1 -1
522 1 3.9168329160000255 4.581333141224633 7.902596460903739 3 0 2
859 1 2.71799326848381 2.6277223432489283 8.682386385465794 -1 2 4
290 1 3.2321124618426165 2.9371772753010768 6.006123434764507 -1 0 1
282 1 4.593451122411935 1.9631639112946975 7.800007114458338 -3 0 1
351 1 2.252874862306782 5.263541777232285 6.301207238927241 0 2 2
730 1 5.206249807407877 3.576207323181328 9.299714311356194 3 1 -2
365 1 2.444788213402944 1.0875699198671276 6.7948809699441135 2 -1 3
1075 1 7.750087515496314 2.940057932807637 5.734894569068672 -2 4 0
1520 1 8.388959489246616 4.714828954914257 7.556407814410619 3 1 -2
512 1 7.270896250700385 2.8235888236446143 8.579871478951269 4 0 -2
33 1 5.832469437961901 3.6523694637294484 7.096572388676841 1 0 2
622 1 9.510071142290307 3.661448648130993 9.155038798732948 -3 1 1
1309 1 8.849674559113971 1.938168720801493 7.490950845548284 -1 1 0
492 1 6.665871165906134 1.361559073318543 6.891411251727308 -2 2 -3
796 1 6.761529260405804 5.306515578021573 6.017536960489451 1 2 1
1320 1 5.845665905476226 1.2819169639905397 9.44054940609466 -2 1 -1
1149 1 12.256646591385739 2.8722642312218705 5.542377341117616 -1 1 -1
476 1 10.089682125261387 3.580801521641194 6.288950655762886 -1 4 -2
167 1 11.335501790256723 2.98191500025872 7.939840548991712 3 1 0
299 1 13.211271471489775 1.9894611775107203 7.355449015984554 -3 1 2
1421 1 13.347759315834557 3.9043324094774574 8.39365016673074 -2 -1 0
1192 1 12.013242914060108 4.5816668096674515 6.900361901690994 0 2 -2
1810 1 10.992152344960893 1.4088860739277211 6.54870106258694 -1 1 3
614 1 11.667239500545323 4.281830024486036 9.661619488589057 -2 1 -2
547 1 10.18168331780653 1.0113989084420196 8.996992865133532 0 -4 1
223 1 12.32695148911447 1.963497332930007 9.653647742627909 -1 -3 -3
1257 1 1.6230650409238658 5.430444474257995 8.553763940434601 1 2 -1
1787 1 3.0819211933405666 6.913939250178751 7.84929064480713 -1 0 2
1715 1 1.7017374060317427 7.416719540525809 5.759746726612655 0 -2 0
1405 1 4.604202622745831 6.375035173633855 6.583777107179023 2 1 0
1250 1 4.536827994781008 6.302412978554215 9.548214253990563 2 -1 2
713 1 3.2535523293699975 8.544063557757482 9.48408751235609 -1 -1 0
791 1 3.8336652456343248 8.442887225531187 6.230918784400868 1 0 0
979 1 2.2221304193591864 9.079277626110958 7.496839386265244 1 0 1
1248 1 5.292135862669467 7.837379777608528 8.36317941099798 2 3 -1
1823 1 5.853897886806379 5.3630772201986945 8.207564223013875 1 1 1
1919 1 6.082884970067844 7.592074862924113 5.870857409763033 1 0 -1
703 1 8.512184117746393 6.147446999385883 9.112310462294259 -1 -2 2
438 1 8.906910120109146 6.235175722783328 6.336983652026244 -1 0 3
1982 1 7.183001735358935 6.914558016835917 7.598038798096657 1 0 3
452 1 7.468861526741254 8.830059278514483 8.780793894578792 -1 0 0
137 1 8.14211502488224 8.752981804061402 6.486428794953834 2 -1 -2
185 1 5.968021547123468 9.404045170855396 7.165550634012185 2 3 -1
1607 1 5.662086468436691 9.434823789192308 9.681000823011736 0 2 -1
726 1 9.413345402733832 7.799595375022009 8.040755313300625 1 -1 -1
368 1 9.600813789986368 9.664877575432236 9.069401209580551 -1 1 -1
590 1 10.759857699597061 5.665641271415483 5.653130027903957 0 -1 1
1632 1 12.310303310120934 8.744905069985409 5.53795041809262 -1 2 0
1260 1 10.356229876187754 5.341986357179406 7.926368570984835 0 0 -1
513 1 13.816710744469022 7.954584825331709 7.413946141783319 3 -2 -1
1757 1 13.185595629023435 6.344504862676798 6.161496043992933 -1 -1 1
1071 1 11.439246819288527 7.327061041833343 7.05136476885301 3 -2 0
1022 1 12.615273806794402 6.264061313145568 8.474951908217463 -1 2 3
1129 1 11.785746138598284 8.438198749496564 8.90739669377944 4 1 0
312 1 10.397154401681775 9.360903019523983 6.659444225807474 2 1 0
134 1 13.929743281151191 9.549050486633947 9.310957412107403 -2 -1 -1
1915 1 11.017700427554997 6.571014542594094 9.557335980403286 0 1 2
509 1 4.25036186914256 10.15798103398756 7.873061129183199 -2 -2 -4
1910 1 1.6092448821721912 13.204833683693135 8.78493928982067 0 0 1
950 1 3.2407207107727096 10.767701358372413 5.973545351180189 -2 1 0
1074 1 3.369525230208979 12.426320738656392 7.686968437548696 -1 1 0
1381 1 2.4132933946814403 13.46024401509982 6.074163180823977 2 -2 2
2045 1 2.3446004802933555 10.726094536453585 8.824886074193142 1 0 -1
877 1 4.566278783250087 11.810246011119471 9.546630897257344 1 -2 1
1377 1 1.3565374587083725 11.715781487996534 7.119132928315181 0 0 -1
1379 1 3.768300244231713 14.093756525842261 9.53072499129105 -2 0 3
401 1 6.523168626318433 13.498658404509777 5.734315353865098 1 -1 -3
1308 1 5.484194318773199 11.810024107403787 6.7423702096135605 2 1 0
1449 1 5.594185211628658 13.383905069293101 8.542349019460909 3 1 1
795 1 7.390674624106763 11.118030917870813 5.946659069375098 2 0 1
1783 1 8.544409768939097 10.611673233170796 7.409956260809981 1 3 -1
853 1 7.806881405154948 13.032052039209447 7.556793049669288 -1 -1 0
499 1 6.56295166771397 11.208771727388072 8.722310340631731 -1 1 -2
1836 1 9.004170797106763 11.897378159238192 9.293355927572629 0 2 -1
393 1 13.691795587817063 11.97811936821775 6.394326966900655 1 0 1
1027 1 9.979339976366504 12.2255201944453 6.449812485782572 -2 0 4
1780 1 11.695343221384476 10.883566162968927 5.631907359264319 -1 -1 1
431 1 10.146789835355797 13.685958577053931 8.379576481600415 3 -2 0
1264 1 12.53684774467216 9.882679110341579 7.695328933531283 -2 1 0
751 1 12.916681173548291 12.164119081017617 8.907510033239735 2 -2 -1
671 1 11.89692780064196 13.129642773685157 7.01880085095185 3 3 1
1746 1 10.873014548743884 11.28846408584398 8.049186184227697 3 -1 0
24 1 4.717012947703134 14.255228651559305 6.812937375272534 1 -3 -3
1688 1 1.5381722031980618 15.639058795113755 5.816671419590602 0 2 1
1785 1 4.629576561687275 18.4612622825332 5.419547178251973 3 0 0
428 1 2.406749678507804 14.95047747190567 7.752416751652629 -1 1 0
1898 1 3.657268692959002 16.61791418095835 6.446221796437824 1 -2 -1
1724 1 1.793464284056026 17.135956546448345 7.656894579138252 2 -1 0
820 1 3.0151411121542893 16.37682113330189 9.187410544213197 2 -1 2
466 1 4.1249891019667935 18.156090075143965 7.664439069748742 -4 1 0
1744 1 4.78543274902793 15.896428419582833 8.213420996442192 0 3 -2
1051 1 7.919822962967998 14.38535853421667 9.088035875607027 2 1 -1
1 1 9.016127887451727 14.233923054144476 6.297509656729296 -1 -3 1
356 1 5.8044772696760205 16.14295314662434 5.553499147699983 0 -2 0
225 1 6.0619889252463 17.42740157374532 7.110800072465135 3 0 2
1506 1 7.05308040883874 14.966473867810619 7.097655692023314 -2 1 1
916 1 7.998598990638838 16.737958813216324 6.013585655886989 0 0 -1
1974 1 9.229158731079133 15.830621202312164 7.932352064531103 -3 1 2
721 1 7.57164593516618 16.50143494251353 9.006808598174052 -2 1 0
1011 1 8.284706503147765 18.31568986042934 7.928202182497176 -2 -3 2
1137 1 9.649554374700502 17.657472624332 9.298339091691918 2 -1 -2
1139 1 9.963792273480166 16.154465383920574 5.43659234833088 0 4 0
520 1 12.379200703088342 14.407019478005607 8.779870226961275 2 0 1
30 1 13.991256835472484 17.510362992474963 9.49120716387138 -3 -2 1
1196 1 13.383211406884728 14.416046931714039 6.26160708152188 2 -1 1
293 1 11.411576695586065 15.333279704212567 6.87690274405771 0 -1 1
1714 1 13.609054795637356 16.022332957530168 7.783375818232966 2 0 -3
1713 1 11.77246211891952 16.79914283443739 8.591690553171786 3 -2 0
1468 1 12.504892029446426 17.05571223544454 5.940061563374146 2 0 2
573 1 10.471075967944799 17.751815102308086 6.780648687065532 2 -2 -1
1634 1 13.032050208374313 18.24682409090258 7.85395361985628 -2 0 3
1356 1 10.428903277239902 15.351947956008447 9.636288709672963 1 -1 0
423 1 4.050538343420575 20.76160850512686 5.48893613091809 1 -1 -2
894 1 1.550097139969024 21.301452117153058 8.728468295342278 1 -1 0
107 1 2.6666759181538686 18.748318077531493 6.353259205618967 2 3 1
770 1 3.353400519189123 20.6356805973776 7.637652625570418 -3 -2 0
339 1 1.6292673866281966 21.576919876370965 6.5144490835540125 2 1 -2
337 1 4.418726561210054 22.540166054061444 7.235596676769102 1 -1 3
2020 1 2.575264268315675 18.971433738865123 8.667854668346104 -1 -1 -1
384 1 4.828055967245442 19.644065887195815 9.619573797200907 1 -1 0
532 1 5.410798288409193 19.975873032822786 7.260078720187295 -1 2 0
1087 1 5.58847619103231 21.61676023445393 8.868187629272228 3 0 -1
412 1 6.511125917412054 21.683798073479604 5.902696128152711 -1 -3 2
1934 1 6.401742674623715 18.73581548885258 8.76156420607175 0 -3 1
729 1 7.3936028531893845 19.291943076441715 6.174083681641877 1 0 1
259 1 7.428573272238705 20.671556958398128 7.803969570788205 -1 1 -1
1576 1 8.667069803087497 22.43084045437424 6.832704349980226 1 1 1
702 1 8.974754975667286 19.879255184315486 9.19855338312757 1 3 1
462 1 9.704688255331035 19.801183617333773 6.816042939567748 -1 0 -2
557 1 8.021693803547757 22.283424520574858 9.156963071290688 -1 0 -2
836 1 14.03150832120618 20.069335918463626 6.310157197002066 1 1 2
1979 1 10.09710350638637 21.646205163536905 8.204742166138729 0 -2 3
236 1 13.029668074154435 22.52124511696831 6.563510524223993 -1 -2 2
1161 1 11.066259956943318 19.098259308645904 8.419252991627415 1 1 -1
199 1 11.639985016405001 19.07199573585905 5.765161660877657 2 1 3
746 1 12.09350086554283 20.392275304006066 7.408910073039481 3 -2 0
964 1 10.823909088589268 21.532567525067407 5.676124103716075 1 2 2
267 1 12.294712460939925 22.193147782449586 8.926940193452632 -2 -1 1
405 1 13.235238399142942 19.902711798233515 9.448227793885975 0 -1 -1
1282 1 1.850605954433203 25.952860457023643 5.46201826086715 2 -1 -1
94 1 1.1995367018497012 24.112178362664878 6.567472095773917 -1 1 -1
1124 1 2.572460971892139 23.40026904197882 8.422401263261651 0 3 -2
541 1 3.030303146984236 23.309771106986613 5.515824948685205 3 2 1
307 1 1.7202944477743607 27.232966543113182 9.611302689067747 1 2 -1
437 1 1.5312108395562503 25.7930383433891 7.880066407589774 -2 -4 -1
1671 1 4.400149028643264 26.65538311540444 5.996040595145925 0 -3 -3
922 1 4.80606113200697 24.261731704537315 8.654138730845784 1 -3 0
2036 1 3.5585835330555273 25.114231238409253 7.1184956692657275 0 3 0
1766 1 3.759443115751496 26.776110972335537 8.6670554285603 0 4 -1
1975 1 5.255062080127146 24.234277394830766 6.042937993596104 1 1 1
6 1 7.367832848772702 23.583102651565085 5.47464990788696 0 -4 0
421 1 6.345092650871241 25.950260184457633 5.457997237802194 -3 -1 4
995 1 6.67076540947246 23.53312522979559 7.632785349305509 1 1 1
1268 1 8.750753983584001 27.158430860940328 5.804082508260736 0 1 -1
309 1 5.944709494054667 25.942286926761824 7.791860402820657 -3 -2 0
675 1 8.917881347503489 24.057524151539326 8.289445755595562 0 1 0
1385 1 7.96719885447907 26.68071393580402 8.683785021648596 1 -2 2
1718 1 7.885668588347871 25.371315975011324 6.9423110593623765 -1 2 2
1613 1 7.037265221702648 25.109128616854832 9.42247294132451 3 2 -1
369 1 9.52174076995728 24.2457634638456 6.115624210864082 1 -1 1
120 1 12.791867883014291 27.00932554004307 5.834055763985846 1 0 0
485 1 13.36951924613402 24.268250092076602 8.02898273557317 3 2 0
1200 1 10.039881543025496 26.01744031315474 7.520548966181898 0 -1 -1
171 1 11.198516213020724 23.488067215415423 7.281910196348623 -1 -2 0
1386 1 12.075542123891267 25.227609849747342 6.5694069218446325 -1 0 -2
1209 1 11.387336845841395 24.984819254772546 9.089022923050836 -3 -1 2
1183 1 12.434275180902365 26.916014433701523 8.060895144325475 1 1 1
1302 1 13.92510828999586 24.640750053023755 5.6550800017574225 5 0 -2
1541 1 10.438758555763894 23.277029414827176 9.746632905468113 -2 -1 1
1590 1 3.262576714256295 4.479040059253607 9.994870402844407 1 2 -2
1276 1 3.870734360629243 1.729008396212698 10.3571491230463 0 -1 -2
652 1 4.62747778364785 3.534165345325368 11.918109625429208 1 1 -2
659 1 2.5096282438665574 4.010356096434052 12.821749676573663 3 2 5
656 1 2.1495804818280284 2.725001810488715 10.753266265225545 1 -2 4
445 1 1.3030478938741137 4.871543911570628 11.119023499863037 2 1 2
1560 1 4.752715614771722 4.710402908871749 13.507521811209623 0 2 1
1605 1 1.509596975638681 0.9494684544457748 11.998395301221892 2 1 -1
1285 1 3.6151217868940173 1.6602384871333324 12.797499648017666 -3 1 0
510 1 8.130949572374295 3.415863301617546 14.082674555224349 3 3 1
600 1 7.269819958047939 4.503370252224497 9.883060695429176 0 -3 -1
1234 1 8.46589677497865 1.7060551457103417 10.091726682940878 5 0 -1
1344 1 5.857415431965641 2.393938565029991 13.185631470097045 3 0 -1
166 1 6.976490551057915 4.330247878717392 12.565662045211761 1 0 1
1881 1 8.517046398756474 3.407674495106552 11.553910317619403 -1 2 -3
1165 1 6.395813507758746 2.5363692228865915 11.017892365877156 1 -1 -1
792 1 7.79728527616774 1.6790209325754173 12.581306140355618 1 -2 4
1792 1 9.14450773847403 5.162761573169189 13.15707825380847 1 2 4
1927 1 9.954814185966846 5.044161374496052 10.76109966175135 -5 -1 -4
1705 1 9.925351012123945 2.36064292839478 13.162070686784027 -1 4 0
1055 1 12.841663417979744 3.576105169540091 11.273543612923639 3 1 0
1229 1 10.510859107201204 2.73250618475023 10.979234985790447 -1 2 -3
1060 1 11.907727071980858 1.6629512744598547 12.06463099873266 2 0 -2
2040 1 11.137478780352776 4.371715011023257 12.84387438611632 -2 2 1
1226 1 12.500099742173749 3.066525254892083 13.958317160441183 2 2 -1
1497 1 13.312598178530004 4.982832044005677 13.195140394483985 5 0 -4
855 1 13.930128180119024 1.1416038706666178 11.280757292803077 -2 1 2
1024 1 2.138508775546933 6.800872678195126 10.578750649402346 2 -4 -1
766 1 3.685434000888604 5.859467024184601 11.87312333006382 0 -3 1
1111 1 1.536887617254202 9.234973393010216 10.328770420805613 0 -2 0
952 1 4.770481061658642 7.960324426513023 11.191932691869754 1 3 2
693 1 2.6912037805327773 8.532301386760427 11.921618782317761 0 -1 -1
553 1 4.114717011951406 7.58497677047204 13.359896637250491 0 -2 0
275 1 1.9383996561754147 6.792374675766487 12.902181818684262 4 2 -1
217 1 4.762797648734297 9.548058031878302 12.83150503663958 -1 -1 -2
595 1 6.196680484966039 8.579338579037852 14.112425553746291 1 0 -1
1495 1 5.8852324568720835 5.365172142131353 11.000817064219651 3 -2 -1
1737 1 6.639192191087683 7.218032314825085 10.090657477426857 4 5 -2
1696 1 8.068260613685354 6.015782122578909 11.3739231557376 -1 -2 -1
78 1 7.996214828387247 7.811794356392291 13.276395092957527 -1 1 -2
207 1 9.021571608013312 7.819096475024941 10.383287049518238 0 -2 -1
1366 1 5.846922656906427 6.967701998694934 12.614896162379182 -1 0 -3
1962 1 6.81195598238388 9.011402445258584 11.66260599075203 1 1 2
984 1 8.997606813670266 9.565798772080157 12.28272158705356 -1 2 -3
765 1 11.500673602907742 6.120351884787946 14.09954090767187 -1 0 -5
941 1 13.56312496546074 5.522971256261675 10.09158777901536 1 1 1
963 1 13.086646388447473 8.026447506873602 10.590988879939466 -1 3 1
340 1 10.01723059568879 7.107991408239106 12.56419888882024 1 -1 3
1926 1 11.77582784267863 5.996786616363477 11.418774522627684 0 1 -1
1064 1 12.303437345439718 8.067559768342388 12.938049901837612 0 2 -1
1653 1 10.700150826273326 8.664494205733671 11.108604628531955 1 0 -3
2026 1 10.240789187540406 8.762674367940608 13.846671216979528 0 3 2
1354 1 13.050862749759167 9.679667407034845 11.860279141211096 1 -1 -1
184 1 14.151761439902481 6.785925392030561 12.082674674860534 1 -1 -1
300 1 1.0812626822964617 13.108784160709273 11.735813900050285 -1 -2 0
1894 1 2.6384991789700134 10.578949569769415 13.786900753771468 2 -1 1
1650 1 3.9022068592917853 10.07224597577782 10.798228161732053 -1 -1 2
1631 1 2.0648072393392747 12.749728298289467 13.620204316340997 2 -2 -1
135 1 4.066508150185207 11.780156676237398 12.444897286260307 0 -1 -2
842 1 1.9514932763553245 10.693998037384404 11.812271299199555 1 1 4
2009 1 2.7465184583628037 12.593538617118622 10.76905671106668 -2 -1 4
118 1 3.284073370592743 14.05513615389496 12.108715814754987 -1 0 3
901 1 5.113589647196956 13.416090678080293 11.1331708929118 -3 -1 -1
174 1 4.531189844640799 13.3030165899197 13.863742490100854 -3 -3 0
1728 1 9.466925135623574 11.142408149657387 13.786253584795203 -3 0 2
245 1 8.358694071751156 13.569484934048713 13.540157148232028 0 3 1
264 1 6.490212716785546 13.004076316466145 13.064493025818766 1 0 2
1677 1 7.177737013640649 10.556789451616565 13.31494447638 1 2 1
1479 1 7.9462447943231265 10.357536623607057 10.44572328122288 1 -2 -4
797 1 5.874343116620739 11.066434704790625 11.477212829851323 3 1 1
422 1 8.555391569999472 11.970137148206586 11.93651813327604 -1 2 2
634 1 7.148479268279258 12.581165418857346 10.174185427678667 -1 1 1
277 1 9.36194049037943 13.916122861039584 10.721758408025899 1 -1 -1
1350 1 7.2995559831920795 14.137515588317926 11.649477987962166 0 -2 1
55 1 14.02879295067728 11.268435244193746 10.68000146208986 2 -1 -1
790 1 11.104442969564259 12.836591806717312 10.121245862198032 1 -1 -1
1434 1 10.206002899449155 10.771156486744525 10.87109623793462 -2 -1 0
1301 1 10.619741543636774 12.670431646088717 12.688807065575997 -2 0 0
467 1 13.475424636261327 13.720786434048456 10.527588072714417 1 2 0
867 1 11.961273986281213 10.378733641547871 10.054005104048594 -3 -1 0
856 1 11.012309728472035 10.412543083078301 12.765976271049556 1 2 0
937 1 12.37375064203645 11.768591404020412 11.594870317743677 2 -4 3
1466 1 13.28255022548164 11.244807163253617 13.440012145696237 0 1 2
1262 1 12.387328888392643 13.590885685073516 13.322238362792433 0 1 -1
815 1 1.2405331881374724 17.209615137005112 9.97090458254386 1 -1 1
458 1 3.0334395711967996 16.103833499795797 13.582623090414447 1 -1 0
1539 1 5.302067089336405 17.121492226618752 9.793002281838456 1 0 3
495 1 1.7868483795396692 14.685552748435168 10.44614044903901 1 1 -1
1108 1 4.462394283981352 15.746022981740516 10.998392796041713 -2 -1 0
1467 1 4.533654283395967 17.64280240563449 12.492353418499448 2 1 2
625 1 3.4712863468894417 17.973707842003808 10.513771957977267 -1 1 1
507 1 1.1657728890485461 14.855853471904272 12.88551840293936 0 1 3