LAMMPS data file via write_data, version 29 Oct 2020, timestep = 300000

2048 atoms
1 atom types

0.8173428742042539 27.534657125794766 xlo xhi
0.8173428742042539 27.534657125794766 ylo yhi
0.8173428742042539 27.534657125794766 zlo zhi

Masses

1 58.933

Atoms # atomic

823 1 1.9287998003165852 5.7886707532002895 4.630891414485454 0 1 0
236 1 2.4901658645651765 3.904384491649697 2.8839712152935237 0 -1 2
1940 1 4.152133449040475 2.497568830600496 6.151645072221508 -1 3 -1
1334 1 4.118586979511432 5.304348794686002 3.881608627854297 0 3 0
104 1 5.811875639532993 2.469052199539286 3.0180838735456423 -1 5 1
453 1 4.329423295002346 3.06084193798375 4.103278726813864 4 -1 0
1699 1 2.3783894659797515 3.9212800762295656 5.456332517763724 -1 0 -2
657 1 5.890307676979041 3.8901366291986 4.9394538745713525 0 2 -1
2005 1 13.980189673696431 11.945847951511027 4.7976180446934045 -1 3 0
2041 1 2.497184298426694 1.3480845513937032 6.21630476933274 1 0 2
579 1 7.775879227683127 3.44793211306134 3.442108785316073 -2 1 -1
1758 1 8.782364398029863 1.2042682537330989 4.264222304603542 4 3 0
1846 1 5.80918810632241 1.4241209445940755 5.184479106626722 -1 2 0
1247 1 7.862812383380984 2.337050502360377 6.095054021722391 3 0 -2
1 1 6.091361636587631 5.050457295799701 2.891338597041926 -1 -2 1
1285 1 14.141871144878493 25.961326165201534 1.2029608966985486 -3 -1 1
471 1 7.14418430298283 26.609738628428552 4.605563561121639 1 -1 2
1625 1 9.497695503647146 2.2553131217597393 2.45891284450886 0 -1 3
1505 1 11.33901962362215 3.7268633759898 2.5029914126868618 2 -1 -5
608 1 12.739695028171743 3.248869660232115 4.198180798717361 -1 0 -2
1637 1 10.807902319275007 27.000654369293322 3.018563701022822 0 1 -2
655 1 0.9539988554707624 18.450983517606122 12.889137736228237 -1 -1 0
933 1 8.963013180052124 26.187517629759984 10.030188985284505 1 0 0
337 1 12.465370854925853 1.8814337759823898 2.502532352019549 1 0 3
598 1 1.1213369072187567 1.709560295350848 8.586803841061524 3 0 1
1404 1 13.857272016557534 5.152189211047949 3.5694317195946095 -2 2 -3
284 1 3.3115486232468383 7.492190949048948 3.734295685715788 0 1 1
1820 1 2.1160483795865495 8.29304101623877 2.113853147911878 1 3 0
1084 1 2.470559533862823 6.160277009523561 2.381599988121818 -3 -4 -1
412 1 11.89418705630506 18.618241082320367 14.072791251653692 -1 -3 2
91 1 2.0961757576407445 8.027291707030843 5.380121356273434 -1 1 -1
238 1 4.408693317877246 5.074227977707301 6.178836169144749 1 -1 0
40 1 6.931605950275093 4.86154479251956 6.256929905995506 0 -1 -2
392 1 9.754931094164967 4.6656955468466315 3.1076956150051536 -1 -1 1
832 1 5.44945278610958 7.5973805487305945 3.5215146312608034 1 0 0
176 1 7.666676536251337 7.299945539919997 3.9233410132132707 2 1 2
738 1 9.602255042306401 6.771944937119311 3.287265926179092 3 2 -2
897 1 8.001339640690567 5.229122322315592 4.529798819335113 -1 -1 1
1363 1 6.756867812258526 7.191237552872849 1.6724025380916019 0 1 2
1784 1 5.487368509548126 8.990699229868692 1.590348194297193 0 -1 1
612 1 7.223266191387647 12.469841226788567 1.506614908114428 -2 -2 2
1441 1 1.4141762463160288 26.673759532586036 5.031698163902365 -1 0 2
88 1 11.938110152066399 5.704734183997197 2.6324092114147293 -3 0 -2
1916 1 11.918069732937154 7.265437498176644 4.207180851731134 1 2 1
267 1 13.753395956879416 7.004073911369951 5.170792466286483 -2 0 1
1711 1 13.621671959958906 9.371689135030918 4.415192082218201 0 -2 1
1669 1 12.468971345865503 10.471190692936942 10.27412710118579 2 0 -1
1368 1 11.591287508958969 7.567396818141517 1.6915147453111228 -3 -3 0
896 1 13.865102937382701 5.921500528338923 1.3432107574594685 2 1 0
7 1 13.562821404827448 7.3866467804919145 3.1463772510528103 -2 0 0
806 1 13.930670066937784 22.80602071605032 11.628903621864406 1 -1 -1
1746 1 3.825291767488675 9.246874180287556 2.9882166489945874 2 -1 1
1374 1 5.651814952635611 10.9228085006641 2.7248450273717504 -1 2 0
328 1 3.464885288881783 11.341502249247636 3.874259315164103 1 0 0
269 1 3.78240055415856 10.754522687979456 1.6739050556209922 1 2 0
731 1 5.782839096487665 9.844925481485433 4.527690312061319 -2 0 2
374 1 3.8076098591120267 9.803143758593286 5.3288028300311465 2 -3 2
1111 1 1.5307222904938376 11.186323691966587 2.5750276597971826 0 -2 -1
1348 1 11.857282174592267 26.93537626513952 0.8840711340367519 0 2 1
129 1 13.894106780619708 26.579050490807557 13.386842912380635 0 -2 0
1693 1 9.782415713495567 8.842209452131051 2.9534403945303054 0 0 0
1840 1 6.574977786880409 12.622926166288224 4.045649008564277 -1 0 0
203 1 7.32339138162942 9.166273357625222 3.1218088156002906 2 -2 0
653 1 7.5331753388944005 9.975141942988724 1.1122346687306548 -1 0 -1
1607 1 8.163257831030009 11.2440903723984 3.386184275392901 0 1 -1
163 1 13.854763648032584 15.336279547167262 5.121241670065 0 -1 -2
487 1 8.967948691463485 9.495958423352834 4.685147793443509 -3 -1 3
2037 1 12.308292686278879 11.284695298807668 3.200542654433127 0 2 2
684 1 11.12573503494626 9.429270503593692 4.037951181315464 2 1 0
1894 1 10.091638689473472 10.987386159743702 2.5319696671137333 1 0 2
1217 1 11.669725837370184 9.623409055855296 1.8837604698511574 -2 1 0
1412 1 7.439488680697278 3.55297726954732 1.150336830571543 1 -3 0
1164 1 12.2789091253907 24.770118706695772 8.438840609772676 2 1 1
1868 1 2.627217965886115 12.775266464378502 2.124178600084913 0 0 0
506 1 1.93326521257922 12.178391641498438 5.333939990449865 3 0 -1
594 1 3.567088778757473 15.426160300445337 4.9650909441862865 2 -1 1
617 1 3.370162495563976 13.392109451795246 4.246309229076749 0 3 -1
2038 1 2.9556627485943165 14.837360940791342 2.6726852051311756 0 0 1
1714 1 4.818577430497503 15.629887533822687 2.8842303982519915 1 -1 -3
68 1 4.304556561959374 4.910553901574863 1.6312862556453487 1 1 1
1507 1 7.550606456718483 1.3565968941929814 1.64275088094253 -1 -2 -1
1584 1 13.81294559657504 1.2935576863715184 4.385286106054604 1 2 -1
1664 1 11.212277442415704 4.294043496651659 13.740973571829665 0 -1 -4
1134 1 4.838841059771108 13.301243891470135 2.4963617640214117 -1 1 2
1212 1 5.346303129969842 14.157424967641393 4.9137459177853025 3 1 0
1960 1 7.4785568051670985 14.783388967399151 5.007227176474031 -1 1 1
1574 1 8.810344661378677 13.42049571659848 2.4710095625489794 -1 1 3
1963 1 6.7585329372640235 14.608038452334032 2.8438963416464453 -2 -2 1
1510 1 8.57820512995361 12.9758524111349 4.740197021677253 -2 -1 0
923 1 12.256186596629918 13.062155906153787 4.486644598635268 0 0 -2
501 1 13.72638673335947 11.211244676879595 1.069784682861918 2 0 1
1018 1 10.429626078442267 14.186045498216556 4.322769478150224 2 1 3
115 1 12.155456296659235 14.868976447966396 3.3183892212467363 -2 0 1
1406 1 11.147970310008692 12.958276857539355 2.2716356464706964 2 1 0
871 1 13.026053334259158 15.238652332157544 1.070224234973942 -1 -1 2
38 1 13.828220273821227 3.571041527194959 2.2530581896777386 0 -1 2
1157 1 0.9198291469771326 8.55590621923546 7.073047362823806 -3 1 -1
1682 1 3.0478210844214635 16.75705390524351 3.4258429534667956 0 0 0
418 1 3.130907860587082 18.843714512466875 3.9748251166329442 1 -2 0
1968 1 1.5650795427816375 15.064309314756416 4.086166077673175 2 0 3
478 1 1.8410432117146722 18.178305679494137 2.177136288940611 -1 2 2
1613 1 13.83147822428991 16.620177111002615 10.877356011563919 2 2 -2
767 1 1.2611688808205186 17.720953677919347 4.050334092111752 1 -2 1
218 1 2.9476098862878195 20.83437731257365 2.0354573125540307 1 2 0
1859 1 4.551084015879225 19.588845233975697 2.0129336356904064 0 3 -1
1623 1 5.77575234025832 19.947418135905995 4.094078725709392 1 1 4
1874 1 5.150876651453086 17.951734152560338 3.4450402607364947 1 -3 1
718 1 6.187881723013155 16.656136945389527 1.6043533883608256 -3 -1 2
1036 1 8.63180875175562 15.518398664917996 3.296380722526108 1 1 -2
1660 1 5.727545147100326 16.352310404319383 4.94509614629787 1 1 3
30 1 7.250186348373381 17.09095417510935 3.7564253899570352 -1 -1 1
1562 1 8.608628101255817 17.72479856974447 2.0589447940841996 1 -1 -2
92 1 6.5840296822107245 18.702630023867876 2.3416680048086844 1 -1 -2
1944 1 9.6223121724721 17.82062361528675 3.7304198102805834 -3 -1 1
577 1 12.6373806385464 17.062046519968778 2.8487336952535087 -2 1 1
1541 1 10.328567705446066 16.062912135301314 2.187839438411733 -2 -1 0
1037 1 11.81818788998874 18.88561661018136 4.319488847917998 1 3 2
1564 1 11.099949753585522 16.558867672166365 4.582933999256184 1 3 -3
430 1 11.180939155143339 18.471133312622676 2.12922081383352 -1 -1 1
338 1 8.06613362347957 5.608583626792166 2.1263613628779976 1 -2 0
809 1 13.184172063806546 19.31502387039901 2.2193930959260557 1 -1 -1
1295 1 3.868489318515145 20.996037324106712 3.9928955583414423 -1 0 -1
1057 1 3.956577715998707 22.979410047639323 1.8015879190271313 -3 0 0
1900 1 2.0725873615870647 22.637201185199935 3.3426626515579443 1 1 4
720 1 1.5036734372084255 25.377428392708786 6.787315076262075 0 0 -2
713 1 13.736907891747336 8.979353023028468 8.678233921313655 -1 -2 -1
488 1 9.871336107679804 22.503356185234168 13.209436607569339 -1 -1 0
1501 1 6.4580956693015095 23.12317727380338 1.474997190057759 2 2 3
1879 1 5.63611570074976 21.817212094138068 2.6616988168366316 1 -1 1
387 1 7.802762543184264 19.30761082791072 4.553293262092996 0 0 0
1411 1 7.615403372813482 22.781264661554086 3.498086412772275 0 0 0
1256 1 9.147373481250831 19.718959091495556 2.4250087858046765 0 1 -2
766 1 7.40275460025653 20.73145492205098 3.0043428608512825 0 -2 1
1329 1 1.4872056255310948 7.545547367675712 8.858176734012943 1 0 2
839 1 6.0027480643058535 22.32881276826975 4.89812647252292 2 -1 -1
1148 1 13.060347391925092 21.714740449573743 2.77243802678555 -2 -2 -1
1213 1 1.2485409340209799 15.96642244571135 7.960103868869956 0 2 -1
1932 1 9.302245980897581 21.687891759019326 3.68178225436766 1 -3 2
29 1 9.98123245330124 19.78089803535317 4.902213222044607 1 1 0
1293 1 11.278453885424566 20.57165816061251 2.975386153708399 0 -1 -1
1281 1 6.645192878059686 18.264658876281405 13.924340715604238 0 -1 0
1046 1 12.057317406163401 20.845114387582473 5.066720660210901 0 2 1
350 1 10.037826148122948 26.729756233321993 14.107831624099969 -1 0 2
162 1 8.482461939055465 22.109422210033987 1.3951517577137724 -2 3 -1
1923 1 12.897238419564916 2.9753618087675573 10.05919401537236 3 -1 0
1287 1 3.909525744213406 2.224563124280834 1.8989341499402757 -1 0 1
1485 1 3.098887389147247 25.111222456914582 3.412271735174723 -1 2 -1
257 1 1.4651254498544022 26.62420499132475 3.0127380601059106 -1 -1 -1
1896 1 4.8239092287987555 25.234476136674818 2.2151807341934804 3 2 3
454 1 3.870268573054799 27.17140209228131 3.963724846463157 0 -3 2
1304 1 2.3815358969853735 2.050365221035211 4.165781210691342 0 0 2
1130 1 14.157726864621006 11.180074476538318 11.241727907824037 1 1 -1
1456 1 4.85998815917867 23.70232067647018 3.6652760154197024 -2 2 1
1097 1 6.479200305909764 26.067103552769392 1.115898208578002 -1 -1 0
1392 1 5.814563896472194 27.147995004119846 2.9033170545809632 1 1 -1
1480 1 6.729407664878832 24.77096783413139 3.0811337416451448 -2 -1 1
389 1 7.365602064459405 24.61236170987052 5.245103154012982 -1 -2 0
759 1 9.43976339571719 23.875148780832454 2.796368339035945 -1 0 0
1379 1 5.090730581525895 25.80574828490788 4.866577130474911 -2 -1 2
1494 1 8.231529893523588 26.25852681909347 2.7884478045580714 1 0 0
972 1 7.946570949657274 24.59585720114511 1.2420857294080068 2 -3 1
1897 1 13.504810518714713 23.771787893733947 2.224309878878748 0 1 1
1706 1 13.345863077659125 24.201090981615206 4.3263417849452654 0 2 1
2035 1 10.946627402727252 22.82271479111772 1.4707921285099035 0 2 0
111 1 11.324678312192825 22.682640355895153 3.799565213681613 -2 0 1
474 1 11.371179350985988 24.76218523695622 2.0158370782632122 -1 -1 0
222 1 13.28268318350534 26.091806973171895 2.894618768306745 2 -2 0
1729 1 13.645982332432673 9.491126710927936 2.277121319071732 0 3 -1
1850 1 0.9788076056661884 8.602082956985722 12.861996117635439 -1 0 1
956 1 1.7187710856696452 3.2434173760754823 7.33010109899646 0 -2 0
1666 1 3.862118160979382 4.557117367688965 8.278142594483082 0 -2 0
829 1 2.6620626188788368 3.3937765305935996 9.376952215494807 1 -1 0
1689 1 5.991342643450444 4.509453305554813 8.879452696871207 -2 0 -1
834 1 6.129578246632476 2.3979780218494398 9.104009869799022 2 0 0
1592 1 3.8866382241340687 2.0796581721802747 8.311327520271764 1 2 -1
1349 1 5.796230197379457 3.464751630470942 7.130804979129387 -1 2 -1
1119 1 7.9183596920357715 1.3418682360755216 8.17203192629708 1 2 1
1143 1 9.759215056273993 2.2299446872357493 7.283910423102468 -2 -1 -2
1385 1 5.983768841700861 1.2640159198653458 7.460983360969484 2 -1 1
424 1 8.165992964739754 26.706937407842812 6.585435822827071 2 -3 1
493 1 9.394101712921678 3.2258495770078084 4.8041936418161715 -3 1 1
1173 1 11.756458128285978 24.549186429385117 10.479795788977428 4 1 0
1233 1 10.956047091885502 2.300624734369981 4.029177047101683 -2 0 2
1517 1 11.877545564863924 2.080511193934395 6.029171800715138 -3 -1 1
347 1 13.612320236201366 3.081912592634116 6.507708723032964 1 -1 5
228 1 10.970994406612478 3.9459265416259357 6.538114874393378 -1 0 0
423 1 12.004305786723931 2.14269330945483 8.022400811907282 1 -1 -2
231 1 10.310853007134886 27.239595690181662 5.862571316187209 1 -1 -1
763 1 13.746870578579406 27.50737882538041 7.046724281636068 -2 0 0
1845 1 12.321507980071909 26.742555116113955 4.968318818728875 1 0 2
1579 1 1.730127744957238 5.16725721334109 7.7890734269854605 -1 3 1
908 1 5.737860285397914 6.520850164720285 7.51818542598574 -2 -2 4
944 1 3.3469560060157635 6.399981986124976 8.959113478717384 1 0 -2
777 1 3.16376659702939 6.57185065812157 6.899138671796675 0 -1 0
1685 1 4.784819595729962 7.847906743994435 6.024495487368611 -1 2 1
1418 1 2.8554663911174583 8.92334140582874 9.403813988267869 1 0 -2
1964 1 13.983958259905684 24.39168902904184 10.296485782398829 1 1 -1
1204 1 4.602930837137898 7.97703155033959 8.732921032370097 1 0 3
159 1 8.097189392337505 3.671385353908819 8.811562603380793 1 -2 -1
1498 1 5.785366824658949 6.183353159436847 4.977547791161122 2 3 -1
785 1 7.9121207170620025 6.699902558106317 6.098951003927838 3 2 1
12 1 7.477648514602386 5.888295791287386 8.192389601696911 0 0 0
32 1 7.896422138125081 7.512695215523292 9.312503458443102 -2 0 -1
1811 1 6.595096764899114 8.272915665025298 7.820632418168873 1 1 1
1590 1 5.888524191699512 6.549177484584387 9.98483171397302 1 1 -2
859 1 8.919442263963402 4.649733184372877 6.832245676547074 0 3 3
146 1 9.785189396241892 5.66618475476784 5.091147785869364 0 -3 1
692 1 9.344691695622966 6.804235347076396 7.574894599643843 2 1 -1
1680 1 6.252506076949473 8.149969181126295 10.73476047409001 2 -2 3
822 1 13.22867294228373 5.147128794360738 5.83703270444107 0 -1 2
1793 1 12.763740434944529 4.30819478020817 8.197868670338515 0 1 2
378 1 11.449393937316959 4.718294510469178 4.52627065305871 0 4 -1
121 1 11.3847211895906 5.997143380568739 6.374645599929586 2 -1 -2
1438 1 11.354005621354629 5.91518749715021 8.506053686111255 -1 -1 -1
1283 1 13.28306891647241 6.621497563692262 7.46193344819563 -1 0 0
368 1 10.000257856066888 7.873134868641444 5.222426079128787 -2 0 -1
17 1 1.6894493243165303 10.199478855999041 8.209449087908343 2 1 -4
1266 1 3.1844552443235723 9.008969350014189 7.282573053515916 1 -4 0
1942 1 3.8535635567961446 10.87154588611562 8.981004879885507 1 -3 1
1137 1 5.652160779666943 9.862896681680638 6.665919777132143 2 -1 -1
398 1 3.539892796599267 11.3194649341644 6.869709010144069 0 1 -1
1042 1 5.709907023231713 9.950019000818546 9.178278705605445 0 2 0
578 1 9.327052790146693 11.934099352367225 6.541620355432647 -1 0 0
1467 1 7.973241277014107 9.797293773562616 9.440427311233057 1 1 1
1450 1 6.957602108325189 8.469306682938287 5.580306426647973 0 2 2
1430 1 7.370911376372241 10.917037109054581 5.660680316650104 -2 4 3
70 1 7.542654466753922 10.996019085469799 7.660309149097372 1 1 0
2028 1 6.931835855159337 11.895739164338355 9.776076473302705 1 -4 0
1523 1 8.426330553063162 8.969359179301623 7.220931549679741 1 0 2
2008 1 9.80288920926949 11.111647455232578 8.632491023670957 -2 2 0
518 1 14.032116995850076 10.135585698623235 6.56641201890448 -2 -3 3
727 1 10.356877462891136 11.742521790035537 4.61777636406301 0 1 -1
1310 1 12.116749034025531 8.813389300914388 5.973016169754919 -1 -1 -1
1051 1 11.499236222066305 7.961807196488808 8.04116468356073 2 1 -3
2048 1 10.132011078990537 10.019670831388899 6.4112317824556815 2 0 0
793 1 11.25139947090268 12.233325575244784 7.334309258689816 0 -1 1
1170 1 12.269124385680731 11.022593724656428 5.744298274752974 0 0 -2
128 1 11.884374653981169 10.069647068584871 8.068789047563358 1 2 -1
179 1 4.968053397814068 11.945098718747483 5.360066064400415 0 2 2
1989 1 3.2373939039423134 16.064903805304297 7.22323454976891 1 -1 -1
557 1 3.6037329005684215 13.395952533203594 6.732905614286015 -1 0 0
1206 1 1.7700311023899062 12.330071866463088 7.529931997194992 1 -1 2
1486 1 1.8138604780841963 14.515504854672962 6.232433081518942 -1 -1 1
180 1 2.187415611632686 13.946567644269503 8.612556912484038 1 -1 2
947 1 4.177843906585154 13.051554404472759 9.047362624066308 2 -1 -1
792 1 13.929899630120186 14.622882310442675 9.405707930324699 0 -3 2
1280 1 4.510377511936276 15.093233309374153 8.801703284294483 3 0 3
1116 1 5.393933064876275 12.015556783753683 7.651743338564759 1 1 -1
628 1 6.602053632561849 13.82785961230656 8.785067449263675 3 -1 1
1795 1 8.449405687607396 12.929646145658495 8.031643747464585 -1 1 2
1423 1 5.812930872186175 14.99087192029528 6.755049821969932 1 0 1
1860 1 6.842476190819606 13.018648497856159 6.321294187644089 0 -2 -2
1646 1 8.049181339421267 14.912091856220712 7.201205044156583 1 1 -2
1410 1 6.73646741679081 16.26718441490127 8.849620139020265 1 0 -1
1381 1 13.826162491026047 1.4597349650285847 11.851915906339185 0 0 2
1055 1 9.891288088127341 13.832143635737742 6.863328395590881 2 1 1
934 1 12.013150141987158 14.737423341366219 5.819031904865363 0 -1 -2
1745 1 9.782303837045523 2.7542470789307085 13.547491901016967 0 4 0
966 1 11.165385730187806 16.14113988375474 7.4349170823796005 2 1 1
701 1 13.276612301975375 12.94359637548621 6.685468659871104 1 -4 2
1064 1 12.130166343878452 14.239567604185005 8.124784759727241 1 2 0
362 1 13.255059593699723 12.267873570618626 8.613826919629215 -2 2 -1
1319 1 9.984059673676194 14.012616530849614 8.901198109863644 0 3 1
110 1 4.098497358554194 17.476737205854132 5.6643635862768535 -1 -1 2
1771 1 1.5367638450635068 16.770381433633737 5.948082375110234 2 0 -1
1095 1 8.407881647166885 15.923981484743834 0.9662746395047427 1 0 3
1396 1 4.155411910629559 19.641340461235693 5.748779586372758 1 3 -1
877 1 7.055678734076045 16.5714423990527 6.757001671900937 1 -2 1
1788 1 2.643922229997407 18.380426940272383 7.425014993671795 1 2 -3
1736 1 5.207019736290594 19.497186533142745 7.741584651575551 2 1 0
563 1 1.3752872908537421 19.81306137363372 8.647951563855504 -5 -2 -1
1177 1 1.204049806078245 19.05985530137073 5.863111373809411 2 -1 2
1336 1 9.58412283064218 15.762210570834918 5.755414853923575 1 0 -2
936 1 6.2362555388846515 18.246267820481858 5.704969020277768 -2 0 1
1152 1 8.596517670678438 18.204025275647055 6.199592772981879 -1 0 3
576 1 7.1863691299486625 18.37240254379331 7.794412957977665 0 -1 1
1187 1 8.840354015594892 20.22841539728177 7.113327766262988 -1 -2 -2
1535 1 9.039735782345634 17.081760137432013 7.798939440021794 0 -1 2
1171 1 13.470485678665154 15.526851877625003 7.332599355396266 1 -2 1
661 1 10.784177921565593 16.42083526468832 9.468769019699206 -2 -1 1
1743 1 10.224171310437336 18.83739236774209 8.567065616043333 0 1 1
47 1 4.237070693923293 17.448552706724158 1.5378453435088992 -1 -3 0
528 1 12.47636899612696 17.060446698225128 5.866700428325807 -1 -1 1
610 1 10.818168553665148 18.043840805217172 6.268793468513679 2 -1 0
695 1 12.949775496484548 16.376631165056903 9.062266990032612 2 3 2
1925 1 0.9991397102977887 22.33922187256006 8.510721562501043 1 -2 -1
1789 1 12.107608799729187 18.037009458733703 8.00341915866738 -1 1 0
405 1 13.280837535445986 18.44106541305312 10.171549063262647 0 0 -1
151 1 3.073627263943174 23.068525670959254 5.207478360678709 -2 0 0
213 1 4.965018532680659 21.617356622728447 6.630866324217154 3 0 4
1740 1 2.6600310292600398 21.619083599702783 9.807240574374935 0 3 1
601 1 3.054371095299142 20.41071822430726 7.759331031763124 2 -2 1
1493 1 4.873137614068011 21.583359957759214 8.78171174492163 3 0 0
83 1 2.123260216975705 21.254147278806084 5.559303470138941 -1 -1 1
812 1 3.304894259772826 22.779410481325993 7.66492710651739 -2 0 3
1668 1 4.23858677790024 23.31347287400838 9.615770530850604 -1 -1 0
722 1 13.59720587782442 17.88713901622472 4.6097672609900755 3 1 -1
1086 1 6.6912245090468785 20.43267108985217 6.388936608760621 2 0 -4
880 1 6.886198447393013 21.699737736458573 8.554839889995653 0 -1 1
644 1 6.8651822628488 22.77302494600772 6.759757674100521 0 -2 0
786 1 7.904087493040208 19.667813953221767 8.981811737221276 0 0 -1
651 1 5.733556069999208 23.739525314596225 8.25610126355435 0 -1 2
1045 1 10.215928850510954 20.70036635717884 9.273785518011016 2 2 -3
435 1 8.182131572938284 21.654862135794865 5.218974839901035 2 -1 1
1565 1 10.58500746856868 22.218234878447873 5.902889567006642 1 1 0
1524 1 11.931178203665235 23.741567225099935 5.990145223775033 -2 1 -2
1755 1 13.075743792915752 19.28082984326376 6.5067937149197785 1 1 2
1413 1 12.365111481281572 20.18158570349034 8.598052807589976 -4 2 -2
244 1 12.673411253569087 21.6253520183944 6.906926504404934 0 0 -1
60 1 10.991556692917884 20.247085815383098 6.938080756088515 0 -1 0
354 1 11.176025183560625 22.53372596377879 8.013343565362122 -2 1 -2
1464 1 9.372994222330192 19.277446313978807 10.903669992886009 0 -1 -1
1020 1 3.8472066436536756 26.962066311366254 1.6510413322681385 1 -2 1
987 1 12.970012335908708 27.314706797544478 9.423316025202835 0 1 0
552 1 4.229357765567158 26.925961710240433 6.465865083474599 -1 -2 2
28 1 3.287052491632079 25.246936067296573 5.756665504424088 3 3 -1
1604 1 2.7182996819001026 26.915318494468877 8.216805713801527 0 -2 1
536 1 4.098292256180487 25.09609984649088 7.796322925433324 3 -3 3
660 1 4.57319289394316 2.5644707625225953 10.50905706735757 1 0 -2
1126 1 2.2725348016570184 24.294518243842205 8.466308847154103 0 2 0
901 1 4.842125395044236 26.774565519712983 9.054446046252924 -3 -1 -1
1382 1 9.958127501869944 25.797113760448514 11.98866109120179 0 -1 -2
1254 1 9.337697842793338 23.60578842831192 4.9945597272044955 -1 2 -2
1096 1 4.981515369642366 23.91236677997295 5.87363655497011 3 0 1
537 1 6.162934503544157 25.845885797818678 6.594261290185354 2 -4 -2
1065 1 7.1638440671852885 25.997112644300472 8.617875956594734 -2 2 -2
1302 1 8.374353565928546 24.447176970143516 7.164262420994796 4 0 0
499 1 5.857680208955579 24.973148036257072 10.116107740691987 0 0 -1
1611 1 7.788617364357349 24.1803955360355 9.7220626087227 2 -2 -1
53 1 9.094272324203072 22.312365603023583 7.4586488382683624 -1 -1 0
915 1 9.53686186709627 26.722192288973183 8.122041122999303 0 0 4
1311 1 9.99575120722295 24.189205716783913 8.936281462832559 1 -3 -3
1931 1 11.679755550101694 26.8318322335234 7.4336958672254525 0 -4 -1
174 1 13.866469253430267 23.577540310199264 7.261461432581089 -3 -3 1
894 1 9.22909807876836 25.751374733812032 4.618551656799134 1 -1 1
173 1 11.159694037797168 25.067289228817547 4.0847323518006515 -1 0 1
1650 1 10.38366771802521 24.982821105019646 6.6011234128467295 -1 -1 3
1570 1 13.070580345014378 25.479639791283645 6.3964815044547985 0 -1 -1
515 1 13.966472445897992 22.456138484905207 5.120764427446921 1 -2 2
741 1 1.0435917501530263 1.329030528518222 12.212481178712354 -2 1 0
1911 1 1.0157274635590632 20.23565648774501 3.369343983376096 -1 1 2
740 1 1.8109528015266037 9.59454679345509 3.919877829169012 0 1 0
1128 1 2.797218249128641 2.951950174852427 11.430783990576533 0 3 -1
265 1 3.1910650409136863 1.6057959028350406 12.763944948498269 0 -3 -2
1279 1 2.1358941214610114 4.999089458665826 10.778472904019273 0 1 0
1728 1 3.0793956333864863 3.699028433212133 13.665592423250805 -2 1 3
1571 1 5.578629767445187 1.4900141947209684 12.401244689425447 2 -2 1
1470 1 4.59803451849489 4.663002109038533 10.582029617741663 3 1 3
1202 1 8.010557039751127 1.8090845535069153 10.366195177419602 2 1 -2
1040 1 9.08469407714583 3.741764253391088 11.113175552452885 1 2 -2
973 1 6.497064488581235 3.5709441011215453 10.947638488036638 0 1 -1
1629 1 7.648317023114846 2.641696361333042 12.463422093721077 -1 -1 -1
1193 1 9.689250144827703 1.3326175442179464 11.750986555442493 1 0 0
258 1 4.991667286103388 4.012541373628059 12.955309318579802 -1 2 0
158 1 7.811347989760545 4.589348419175457 12.862208480697193 -1 -1 0
1194 1 11.0588863210421 26.390796371137853 9.957008138713043 1 0 0
1041 1 11.896848314120028 1.2713911810734868 11.017797353276807 1 2 3
1320 1 11.482198273516898 1.0793637081519432 13.483744422460026 -2 0 -1
1422 1 11.412847329644258 3.3995334617273842 11.656711431665396 0 0 1
256 1 12.955258066078216 2.702536888276792 13.396531289297098 0 1 -2
150 1 9.938028130123621 1.6319518399278454 9.488621341094614 3 -1 2
750 1 12.510432807382704 5.223220187926917 10.539729556521435 -1 0 3
1591 1 1.3687238639663546 6.303701680005851 12.353704566070094 2 0 3
1561 1 3.6420554888922636 7.247199454004831 10.86852791966633 2 -2 0
541 1 3.5532678685370347 5.713013397590185 12.617959184113403 3 3 0
1203 1 1.4604351829902242 8.181331902531223 10.86571728968604 0 3 2
1275 1 3.2194391703392258 8.121740597276755 13.433138304920076 0 0 0
202 1 5.974911238572151 5.545240883212957 12.068474233102137 1 -1 0
998 1 5.176779550005369 7.421954099721731 12.615604520614541 2 -3 0
1751 1 4.29305704553763 24.287444741898934 14.094406374565043 2 1 0
1871 1 8.579600909398634 6.586313395726901 11.85490495507816 -1 0 0
1220 1 7.090283427586338 8.866170805332876 12.559955837696313 -2 2 -1
561 1 7.570289914078495 5.3286664442297225 10.364386805592794 0 -1 -2
996 1 9.515822126285002 5.153281227431406 9.152532626551565 2 -2 3
604 1 9.045664405398936 8.330505637800133 13.412132781019741 0 0 -1
1813 1 4.469611498324355 7.0225787441676 1.394813005603371 1 0 0
910 1 13.47813809061584 6.9712126938738495 9.417458041959591 1 0 3
794 1 10.779647585830663 3.440687097502924 8.938471586390229 1 0 -3
1965 1 10.514072832319053 5.3666065668754275 11.201861266912932 -2 1 0
581 1 10.044927771101086 6.98874649641981 9.85029122178574 2 -1 -1
564 1 13.03755576526005 7.126873814508166 11.53995034877681 -2 0 0
1326 1 13.174974776524206 4.9215931945234574 12.989738168907216 0 -1 3
820 1 11.514066061738156 6.2592426691530285 12.755709391605949 2 -1 3
370 1 1.4548950823056517 24.228145532918333 12.38495231693706 2 -1 0
1120 1 1.468390676526263 10.342897963833025 10.558476705309422 0 2 1
1144 1 4.286083156777039 9.173356496785456 11.130345232785695 0 -1 1
197 1 6.683123229416282 10.52371431243146 13.924879656574559 -3 -1 0
296 1 4.3829447578816865 11.272877875464216 11.299724950617975 -2 1 -4
1475 1 1.0153346324773858 12.792056598417739 13.594210444628501 0 2 -1
1225 1 2.444203156759823 10.03946135930659 12.370036347873237 0 -2 2
1127 1 4.602764810291996 9.588828376926008 13.205221712155582 2 2 0
286 1 4.847886126998692 11.828165562691632 13.437698462744402 -1 2 0
2033 1 8.95102397136902 8.739551664980578 11.214832216442973 0 2 -1
1189 1 10.604858975045591 12.113834759460378 11.875630708202072 1 1 1
417 1 6.54943890766564 10.299663174490712 11.244248886617598 -2 1 1
1731 1 6.5887060821877235 12.048224184580414 12.083227500246148 -1 0 0
1568 1 8.576026168062736 10.865342398756784 12.28647345551795 1 -1 -1
1356 1 8.072374736634007 12.368431187291256 13.880852831195797 1 -2 1
1447 1 8.86982320550831 12.395955329068638 10.523641123987648 2 0 -1
460 1 12.32893356150299 9.219770915888873 12.373768576524867 -1 0 0
1121 1 10.427976350500604 10.119522282827626 12.785084103481212 1 -1 -2
1678 1 11.797523422095308 8.356083545909724 10.17633734023967 1 2 -1
1350 1 9.778465868888379 8.791378431469642 8.783667613971001 0 -1 1
862 1 10.715142501093744 7.888023480256763 11.831655331946635 1 -1 1
302 1 10.619003195317461 10.171097908567502 10.569723869655705 3 1 1
98 1 10.161454837751283 21.010072016143244 0.9522122418469233 1 2 2
264 1 2.1572638496490706 12.476386795031052 10.35107193772725 -1 0 1
50 1 4.582212693342611 14.03907906255883 13.012612575209882 -1 -1 -2
1136 1 2.6572818553911035 14.492035712423743 13.990759152994338 2 1 -1
1005 1 3.1079295728167273 12.671494508594018 12.353169868423919 0 -3 2
1910 1 3.289698785211777 15.823858418518359 12.236964257393643 0 1 1
1387 1 1.4710042280288829 14.19352958802934 11.992839851991251 1 0 -2
551 1 3.4978011434931386 14.345725141721648 10.911452613466508 -2 -3 1
1532 1 7.528101794990391 14.352590292489056 10.895003441339831 0 4 0
703 1 5.492715848684334 13.305522851406133 11.054319778386985 -1 -3 0
1294 1 9.163588569013132 13.443698398855643 12.626010930463963 -1 0 0
1284 1 6.875421914197797 14.32266053956984 12.811504784080318 -3 1 0
951 1 7.9404143881515745 16.205555335260904 12.637250207669487 0 -1 0
1145 1 9.754397267318572 14.873079627316816 11.270979366928655 1 0 0
1502 1 5.485014471808967 15.533406029380274 11.319552698840772 1 0 0
560 1 13.571735397046009 13.436248549921944 2.2842019183581392 -3 1 -1
1324 1 13.841140447765875 14.387079885024026 11.613314399356204 -1 0 2
303 1 13.901296977316678 9.857334863432829 13.838993483833466 -2 0 2
824 1 11.150579251012399 12.164757057074235 9.734073323687074 0 -1 1
89 1 12.886622492131911 12.91578296519187 11.10593990273726 2 -1 2
1512 1 11.932758303521904 25.94252143107329 12.437691605550365 1 1 -1
697 1 12.493413928207158 11.509506236845676 12.556708562493332 2 0 1
671 1 11.921799963769496 14.652452330381186 10.14921139479729 2 3 1
381 1 11.349696996164955 14.167537622232585 12.359588563484913 2 -1 3
2042 1 13.926217577991551 17.96833560412967 13.808038553723021 1 0 2
508 1 4.856290986461117 17.38603386090782 7.9626344504684505 0 -1 0
2024 1 13.330519070592423 26.116508819452257 11.067972871011841 1 0 -1