LAMMPS data file via write_data, version 29 Oct 2020, timestep = 300000

2048 atoms
1 atom types

0.9313753258124073 27.420624674184868 xlo xhi
0.9313753258124073 27.420624674184868 ylo yhi
0.9313753258124073 27.420624674184868 zlo zhi

Masses

1 58.933

Atoms # atomic

387 1 3.9932375098960913 2.9435203909866723 3.7129700667582846 -1 1 0
1849 1 2.5935079916746853 3.521238596333573 1.8138505875120936 0 0 1
97 1 4.594587357934575 4.623207599544582 2.351958470059362 -2 0 -1
1431 1 3.2507322066083058 1.4461690089693404 2.020540525979424 0 1 0
1052 1 1.8399798084066639 3.6164935464454047 4.485042325663068 -3 0 0
907 1 4.300135216605463 4.568608433862673 5.175637887024123 -1 1 1
1202 1 5.336734956240649 2.3736167627221887 5.117949851559669 2 2 -3
260 1 4.718363109531186 11.025742999641729 1.2452335907402503 -1 -1 1
1269 1 2.6841494711267337 1.2542501923641438 4.61054536437398 0 0 -5
2041 1 5.926252711732012 2.1143689397183163 2.328486182529442 1 0 1
1611 1 6.330336005219085 3.7961011241829428 3.910481123532048 3 -2 -1
363 1 8.391762631638983 2.7651578760468065 3.055536192901411 -4 1 -1
224 1 8.793200089791213 4.622883673630078 4.482865671863457 -1 -1 5
314 1 7.775944674568139 1.515747950466244 1.4461266223962315 4 2 -1
945 1 7.208418078877241 3.825191113032944 1.5117366417514448 2 2 0
918 1 9.235924545851077 4.588794169776998 2.0216586800279446 0 -1 2
1577 1 9.492041627233712 2.277193746550317 4.729748291931277 0 2 1
684 1 7.273211879121971 5.482078075656075 3.02548151290975 3 1 -1
1038 1 7.303647916829054 1.4204791444002156 4.198726939634254 -2 1 1
785 1 1.0833469483456892 3.4680739469732824 6.734684130627983 4 2 2
1190 1 10.321401464607332 1.934425110276678 2.08130497401097 1 -1 -1
1566 1 10.800567255213943 3.54131806403359 3.3874921942313447 3 1 2
1404 1 12.696276049179593 3.0801476230036706 2.291369380038888 -3 1 -2
400 1 13.304475563159123 4.506052563522618 4.050506007426953 -4 -2 0
297 1 13.927432577027275 4.870897125914688 1.7141925712547539 -1 2 -2
341 1 11.715893569540606 1.383601941102298 4.0585633140764585 1 1 1
1149 1 12.172544076542954 3.0839980875258455 5.392761220413549 -1 1 -1
1406 1 1.4682667021718836 21.860824435211725 4.666265079040465 3 0 0
1963 1 2.677900267992064 5.3449654132534326 3.258500036267433 -2 -1 2
125 1 1.6023207747085233 7.836363924175858 3.513803148483221 1 1 0
128 1 3.8842584289364024 7.253998173653029 2.3422637111555735 1 2 -1
59 1 4.185810144269443 8.687659707068036 3.967273160251353 3 0 2
1646 1 2.5736982814769975 9.361592575335802 5.30280680000635 1 1 -2
1807 1 3.2444883707247847 6.674193654390141 4.691886719099774 -1 -2 -2
1180 1 1.4372149310602724 6.146954412669582 1.7101641097280424 2 -3 2
468 1 5.2401149597139405 8.671109559103522 1.2731173227095147 -3 0 2
540 1 1.4802191980366546 8.373497394624406 1.295666159375809 0 1 3
1034 1 2.839177719524712 9.454892049752187 2.3531858363453377 1 -3 1
417 1 5.404330339455459 5.984229403526236 3.913816414989399 -2 2 0
1378 1 5.862680766522362 6.236526487317938 1.4369917282245073 2 2 -1
1706 1 8.435176984610184 6.854463024867257 2.006075899419106 0 3 1
1946 1 6.260000598209431 7.8482073651612785 2.8941969651044106 -2 -4 1
222 1 9.203724216881442 8.841626254588965 3.3870790833916504 3 -2 0
1855 1 7.899727256828938 7.2815735522627225 4.440067203827018 1 -1 2
415 1 7.449119040073239 9.335481584433325 2.1607800559565935 2 0 1
1358 1 7.4880899510517605 9.409137814225373 4.657276188499958 3 1 0
1658 1 9.709075432829081 6.137571219589141 3.657235488199913 1 1 4
429 1 11.763185744317308 5.286767198332076 2.323451592157314 2 0 2
1289 1 12.286317477891318 6.808863252049087 4.095743100442192 -1 3 -1
403 1 10.734240935018043 7.686088356454161 2.41184488052581 -2 2 -1
1188 1 13.657527617071715 8.534449952648895 3.3944900340719517 1 2 0
633 1 13.052384580204492 7.189569821960041 1.571716588705437 0 0 -2
1014 1 11.286989414135208 9.282589696055291 4.179087752628037 0 -1 1
1403 1 12.208464039509119 9.510581804618676 1.466872088210465 2 2 2
92 1 9.980232328548164 7.912551088604041 5.266413121798591 1 -1 -2
1632 1 12.867148486300133 8.450854478689068 5.865794386739617 -1 2 0
1096 1 1.2674113330137582 12.04079384285605 4.721845939911443 3 1 1
839 1 3.0886942682023766 11.092671219226464 4.12759273324272 2 0 -2
890 1 2.662456156337509 11.902022095304853 2.0280064895240537 -2 0 2
2017 1 2.9012382597462087 13.141518607724734 3.677713730940029 0 1 2
909 1 5.021089848215582 12.48282734854327 2.9193681557293365 1 -2 -2
805 1 2.029517728421093 13.921573146216723 1.2430590189586406 -4 -2 -1
1475 1 6.557977089383725 16.54084100094397 14.061976206306586 0 2 -2
1841 1 1.4440807421841733 16.494630527727907 1.351392039375676 0 2 3
1285 1 3.923282452483006 3.2794570961182066 14.052549270128257 -3 1 0
2018 1 5.605082800417462 10.181969385788927 3.008705346779878 -5 0 1
1388 1 8.36390333152703 10.918610387887604 3.3682632856941312 0 -1 4
1082 1 6.4052720226462245 11.95643801271624 4.541525695331679 -1 -2 1
152 1 7.5653249976645585 13.375105114292236 3.3233934041440873 -2 -2 -2
1585 1 9.468254462989885 12.324968967922993 2.337056339434504 1 -1 1
910 1 6.755993691536907 11.645899418198264 1.894145652848188 2 -1 3
1726 1 8.899695210917582 12.462477254526494 5.037606730095996 1 0 2
531 1 13.187039526368652 25.49338237313866 1.0407431161654221 2 0 2
1965 1 13.516544725010887 12.855999952944348 2.1109103599145858 -3 1 0
1275 1 9.64507987869573 10.081893096775142 5.290838315716941 1 0 0
1906 1 10.3794681089654 10.373733671956762 2.3922371069426482 1 -2 0
579 1 12.611850167003384 10.89912033361779 3.233037870481005 -2 2 -1
893 1 10.771386812246066 11.640657496516807 4.12438609303114 2 1 -2
1270 1 13.02695629269885 12.681277942512077 5.032826962541217 1 0 3
1003 1 11.743572918734511 13.351529091715292 3.5919271194372278 -3 -2 2
899 1 11.444847699014943 11.945437529456523 1.6550207260802412 1 1 1
230 1 10.559681413784176 14.074201107320862 1.5901861775148247 -1 -2 0
61 1 1.9081028412990602 17.94404804484368 3.070417816672549 1 -2 1
1760 1 4.261768937342886 15.041847662566346 2.3110323952774423 5 -2 -1
42 1 2.5432662568853877 15.794889682886971 3.2888571884546303 -1 0 -2
1347 1 3.938477533525943 17.377681180362842 2.0450925914454468 1 -1 0
253 1 4.825662826068353 16.6548680901326 3.8244799812390653 3 0 3
897 1 2.9181234603614534 17.164636153475232 5.08911785641187 -1 -2 2
1765 1 3.5303752817373497 14.971832309449573 5.3275020411997165 1 -2 2
1028 1 1.1041813473304665 21.067661476140437 11.608884591580928 -2 0 -3
889 1 5.446459904935211 14.45959844082931 4.120739203710811 2 -1 2
1399 1 5.929634353672756 13.98515928442891 1.5898158843412866 0 1 -1
1061 1 5.577648762780635 16.22502611838104 1.0852657186197112 5 3 1
1176 1 8.354329967357348 14.842732643547649 1.941383710099819 -2 -2 2
574 1 6.771357565832863 15.909357924300176 3.1603734551318046 0 0 3
477 1 7.087697537878574 17.596369743431275 4.770046338887537 1 1 4
965 1 8.788965772947869 16.803576800095946 3.5159087206162574 2 -1 1
1435 1 7.725719866837238 17.54329628458119 1.6579748332332298 0 0 -1
521 1 6.063869144886679 18.123399813321186 2.7182339250610923 5 -1 2
1901 1 7.641959307750385 14.939769534535047 4.897053528904333 -1 1 0
1682 1 9.488472993555016 18.462868615329867 5.197175785481837 1 -1 0
1932 1 2.762165460403229 24.40012771485044 1.3892486249585783 2 -4 1
336 1 9.507622244396588 14.43363315211296 3.7963755432208353 1 -3 3
904 1 11.89131556538027 17.500299959390418 1.715610161124336 0 -3 0
496 1 10.74443120171808 16.235462207845508 3.0745970327084025 -3 0 1
189 1 12.231720863634695 15.456990247929651 4.529520217764298 0 -2 -2
288 1 11.233003581055018 17.765125070029175 4.4590637394935 0 -2 0
1833 1 13.199985206713368 17.005745777500213 3.3349617490896866 0 -2 1
409 1 12.619773512854778 15.182402240168111 2.099695261950685 1 0 3
426 1 10.118315442904505 18.49562048302738 2.730943022429237 1 0 1
1630 1 3.940747962837848 18.74415494900148 3.7571284074381492 -1 -1 2
800 1 3.1260739993110622 21.40370501523684 3.449339659970471 1 1 -1
1917 1 2.7642423265060794 19.6090492520132 2.124620448089249 1 -1 -2
1857 1 5.0914540230433 20.518392070511776 2.6195192201156043 -2 -1 2
408 1 1.928203525890663 22.434370817323927 1.856399842522071 -1 1 4
371 1 2.0713627762642752 19.402577234647698 4.565451543593774 -1 -2 -3
423 1 4.253988625214178 20.578157438181012 5.096742710533897 1 -1 -2
194 1 4.7248996559411856 19.178891019226516 1.1407116316367834 0 -1 5
30 1 13.951338785796903 17.559092809746673 9.332665930998896 -3 -2 1
541 1 3.5940640711762986 22.835228930165187 5.314273709447247 3 2 1
242 1 9.488820888135908 16.416842194462333 1.1826084890132853 0 -1 2
682 1 5.660772053596095 22.43345210524959 4.322754159839228 2 0 4
545 1 6.155460270937424 19.663860632461827 4.607576859728387 1 -2 1
220 1 8.013381959239101 19.20876537696867 3.368082724695606 1 -1 2
1029 1 7.363813921749822 21.45630208156587 3.1366544125263665 -4 -2 2
1158 1 6.920544321174441 19.793955224272725 1.4503646024484618 0 0 0
878 1 5.7384303144413655 22.314563813511477 1.6738566241733035 0 1 0
255 1 8.482952892139625 20.63369935477348 4.994151423679549 -1 1 -1
1463 1 9.2753670798801 20.772143787654464 2.3163885026368582 2 1 0
6 1 9.62542107310489 22.342474096974858 3.9630787296368215 0 -4 0
1278 1 10.001881469879347 23.002582908917926 1.3419707669034244 3 -2 -1
1975 1 7.883138832306739 23.17409060495211 4.8454470480246865 1 1 1
754 1 3.2297041664368766 5.729298263227074 13.911737106680492 -1 -1 -1
1540 1 13.441162279364647 18.479160474351193 4.840608542154083 0 0 -2
707 1 11.060654830671112 19.84038083661026 1.1780452865662498 -2 3 -3
481 1 13.458147046200136 21.008652963912077 2.1425420441551983 -3 0 1
2042 1 12.414501787841372 19.26071324600275 3.043534279272428 1 0 2
940 1 11.55434185394669 21.877123096459577 2.9602979172349464 1 -3 1
1891 1 10.468676436404996 20.20369024761985 3.7970287332424104 -1 0 0
1066 1 12.801151989124184 20.9212808946776 4.988877241915224 -2 0 0
350 1 13.383660912633315 22.739236605092596 3.873413364151012 -2 0 2
1582 1 1.2169505987594929 7.602251253961322 5.852717221751175 1 -1 0
874 1 4.119342056057276 23.082963523322764 2.892860061330727 0 0 4
1958 1 4.943689778271206 27.092257888930067 3.583867715016214 -4 1 2
159 1 2.2274400598991613 24.161949708218472 3.8792843278381723 2 -3 0
736 1 2.8874860866756062 26.1062257465651 3.0199114348696225 0 -2 0
838 1 4.809137876080776 25.147432717779488 2.116941448793809 1 -2 -1
888 1 4.370610639724092 25.00723481618815 4.3971456947674525 -1 -1 -1
1967 1 1.0450007948337638 17.279994894178067 12.686616581466762 3 2 -1
1282 1 2.1654584396214878 25.884533251705733 5.444210574480323 2 -1 -1
1365 1 6.3802872292433 24.185055999355427 3.49506905394064 0 -3 0
1171 1 8.640136170413165 25.41048334723166 1.7215288995811089 1 -3 2
1239 1 8.133064755129196 23.363002842928967 2.516634126563491 3 1 4
1410 1 6.919457153286296 26.29566631223855 2.880477577229496 0 0 -1
1581 1 8.294259158365053 25.22771017059596 3.8998116888658325 -1 4 -1
383 1 9.485292984939552 27.008856794576346 3.311402721304615 1 -1 2
421 1 6.314577944353421 25.94180414137007 5.025641163031665 -3 -1 4
1453 1 9.96137686252282 24.293548679616297 3.039074380777521 0 -1 -1
734 1 5.684484249922113 26.898436478042775 1.0417450622167743 2 0 1
1344 1 4.970131625910419 27.09786985963771 13.864208685098909 3 -1 -1
1310 1 11.71483141914717 23.436711178457763 4.797200398797287 -2 -2 -1
1112 1 11.987786618570777 23.95782626064803 2.0135812756859766 1 -2 3
362 1 11.214913032349692 26.23803287588223 2.158223257997557 -1 0 0
319 1 12.238418326556893 25.424960397415298 3.7669756526085534 2 0 -2
1638 1 10.648769799670978 25.97339987133495 4.827072053424615 1 1 -3
1162 1 13.434043696561675 27.08072874136255 2.536665018320819 1 2 -1
1141 1 1.058050512975889 15.704592084448029 9.017629028455865 1 0 -4
290 1 3.2811587781530505 2.8994920514339024 5.98964685774876 -1 0 1
522 1 3.667263153216055 4.5913363514488506 7.6826011517742705 3 0 2
1446 1 2.6780380580207264 2.5066011846835825 8.297527202036676 -1 1 -1
282 1 4.627929194780895 1.6165806705387733 7.49971482116088 -3 0 1
351 1 2.2418304276403136 5.212432514985152 6.154847806046918 0 2 2
1257 1 1.679660693108788 5.376591362220502 8.510120184032498 1 2 -1
730 1 4.909429726910677 3.373324900615947 9.095523960876081 3 1 -2
510 1 8.325194015898852 3.2921317980153746 13.501417423425213 3 3 1
365 1 2.0943381786656428 27.349716273951362 6.891197318772997 2 -2 3
307 1 1.710769873626253 1.1276973327614532 9.453450381729128 1 3 -1
33 1 5.478977569394442 3.622445528422019 6.816944451312623 1 0 2
1075 1 7.4946951498447865 3.0311592912180285 5.535386399595259 -2 4 0
1320 1 5.751159998944421 27.41297928395607 9.087750237525038 -2 0 -1
1520 1 7.836640889643381 4.345828364248849 7.405606087393314 3 1 -2
512 1 6.92289307737494 2.508749018012548 8.324127941298912 4 0 -2
1309 1 8.861960447637891 1.7641653033201192 6.882654036609198 -1 1 0
600 1 7.2208634995414185 4.095285938627573 9.60534806744266 0 -3 -1
622 1 9.554437612518493 3.4854772131974716 8.691692689387587 -3 1 1
492 1 6.564401502835137 1.1602605330433924 6.314623277276574 -2 2 -3
404 1 11.486027126163833 26.299834164796135 13.095617750973261 -1 -1 2
1421 1 14.068811513551028 3.859419114274716 8.567035327058662 -2 -1 0
476 1 9.517674325904775 3.7490769712816516 6.2979026628518815 -1 4 -2
167 1 11.410515860359487 2.8901837123877137 7.510832770938323 3 1 0
299 1 13.358274860753443 1.9764681090284912 7.022192746574651 -3 1 2
1192 1 12.791731244517198 4.705028451072975 6.9077179635536075 0 2 -2
223 1 12.713089064674012 1.8562336403478774 9.317250839262702 -1 -3 -3
1229 1 12.031527741045013 4.610811768407041 9.140293603290482 -1 2 -3
1260 1 10.362048761977267 5.186242412890631 7.41523700117077 0 0 -1
1677 1 5.965623157692915 10.364971311253383 13.315851370369225 1 2 1
791 1 2.706721030436204 7.101160330177816 7.313398192131081 1 0 0
1248 1 4.278166183470203 8.75778494671372 6.421046549978561 2 3 -1
1250 1 4.064876815506883 6.289233974307564 8.85787801431088 2 -1 2
1405 1 4.72087671098589 6.3854501679060975 6.273937308514491 2 1 0
1024 1 2.9109877724291415 8.80130234633405 9.113689650581346 2 -4 -1
979 1 1.6007021003157713 9.487572726734976 7.429701737309464 1 0 1
1823 1 6.009274123271346 5.222461825109943 8.325100458409672 1 1 1
713 1 5.236974299113816 8.058611622989917 8.020947730144 -1 -1 0
796 1 6.78882756104583 5.326197820588296 5.58013201160198 1 2 1
1919 1 5.984220015954005 7.756632856326917 5.213642748068741 1 0 -1
703 1 8.588872997473448 5.712918931288573 8.70072627809443 -1 -2 2
1982 1 7.064647662381085 6.928520991175241 7.0176022253063675 1 0 3
452 1 7.7375772273720695 8.339351942319148 8.737679453714195 -1 0 0
137 1 8.396289787758771 8.462831870460352 6.425645949137263 2 -1 -2
438 1 8.883698986201816 5.988024588247101 6.130298479950149 -1 0 3
185 1 6.313048498364209 9.520775003553672 6.884660773194418 2 3 -1
1607 1 6.099239090141602 9.253969965471706 9.767518915270607 0 2 -1
726 1 9.660314759644393 7.530087907507281 7.837441619142573 1 -1 -1
590 1 10.978966133349951 5.172063989486951 5.308509968565644 0 -1 1
1757 1 13.785336289792443 6.132817454766658 5.76567105415898 -1 -1 1
368 1 10.41298167170273 8.839551500117633 9.126774512397695 -1 1 -1
923 1 13.40169869044709 6.144362046540638 8.42031291865976 -1 0 -2
1071 1 11.647082790846346 6.819579123174015 6.530174635231801 3 -2 0
1129 1 12.587698731964338 8.280791295629104 8.26652993991021 4 1 0
312 1 11.01102736943518 9.179692976138476 6.979134439318938 2 1 0
1022 1 11.43922531406447 6.752780819992744 9.1836230487186 -1 2 3
806 1 13.357261277752505 27.141275450046532 13.631255019115825 0 -1 -1
929 1 4.4773208869027705 12.64326718993192 5.134181035084234 2 -2 -1
509 1 4.38548590448927 9.99347602815902 8.213279608282502 -2 -2 -4
1498 1 5.2286723193564155 10.18483760526685 5.193319752400033 3 3 0
950 1 3.175201636689967 11.03924673141684 6.392622515608471 -2 1 0
1074 1 3.872393701089003 12.483994698400814 8.140922857828215 -1 1 0
1381 1 2.524614448709432 13.188651604724454 6.214418547878188 2 -2 2
2045 1 2.5231679445158015 10.926281436540705 8.968023818846056 1 0 -1
1910 1 2.027866276630969 13.310104333140924 9.029822808515227 0 0 1
24 1 4.755566123713173 14.203819712591255 6.798469328995563 1 -3 -3
419 1 13.031978754761415 25.993190186938882 11.822251769127888 -1 -2 -1
1308 1 5.632478293402162 11.858672118030924 7.042889289559896 2 1 0
1783 1 9.067620168771784 10.002585268726909 7.687988436245876 1 3 -1
401 1 6.912543248123478 13.322738589673847 6.084702404596596 1 -1 -3
1449 1 6.42899903964202 13.374679535732469 8.445364107646217 3 1 1
795 1 7.6845942616108065 11.048063042557008 6.245847715598877 2 0 1
853 1 8.29666969243474 12.625192108844269 7.854872333444722 -1 -1 0
499 1 7.034775239889618 10.933207287946624 8.582765653361566 -1 1 -2
1836 1 9.570703202637793 11.437150204706048 9.174846229961478 0 2 -1
1 1 9.244873366796979 14.2036733652877 6.609651455945195 -1 -3 1
877 1 5.203410694203458 11.638989176972736 9.685559897198901 1 -2 1
1500 1 10.975677430192585 13.457582277015037 5.530788296201129 -1 6 3
1027 1 10.1363536911961 11.684132832651086 6.952226462367447 -2 0 4
1780 1 11.996339745584667 10.69878790514578 5.788833472678308 -1 -1 1
1264 1 13.570224877381783 10.072078755887611 7.3007653622580495 -2 1 0
671 1 12.29015131296759 12.411678021419073 7.359455412322768 3 3 1
1746 1 11.516583651566512 10.716432036829827 8.42980237465131 3 -1 0
431 1 10.34683826175662 13.330524604165104 8.23369135573186 3 -2 0
520 1 12.952073006617432 13.947501404839963 8.82809050443926 2 0 1
330 1 10.049215901900464 27.175738770114968 11.179641073302744 1 -1 -1
1379 1 4.401620639355972 14.01951501757037 9.437881523131264 -2 0 3
1785 1 4.889905153799425 18.098172845507484 5.554376348409885 3 0 0
1688 1 1.5403563973411283 15.7162168496188 6.223478536230849 0 2 1
428 1 2.8891871947651877 15.00285140798815 7.776948036649487 -1 1 0
1898 1 3.973110137664464 16.623297866188835 6.803372738463357 1 -2 -1
1724 1 1.8414641383682446 17.314042152053005 7.71386805893654 2 -1 0
466 1 4.5007563770873364 18.26293435683658 8.189274457280064 -4 1 0
820 1 3.5270082057775434 16.486683177151875 9.366659808039271 2 -1 2
653 1 12.107028102336828 24.216686920276583 12.956302066243074 -2 -1 -2
1051 1 8.762447523465575 14.184601536033046 9.274665434732595 2 1 -1
1744 1 5.44532990702901 15.632426195916084 8.604225138996362 0 3 -2
356 1 5.665785485997125 15.854460607726082 5.726304345676646 0 -2 0
225 1 6.381116961980158 17.261955397712956 7.155853008025839 3 0 2
1506 1 7.4164727725218995 15.042529440212814 7.318743293045613 -2 1 1
916 1 8.55808094657899 16.579182680292377 6.290199208535406 0 0 -1
721 1 7.674416960904514 16.572938708008536 9.085537214908605 -2 1 0
1011 1 8.84191531334927 18.271038843439115 8.245428926397997 -2 -3 2
1103 1 9.286619890033332 27.094785351441264 13.963529639838633 0 -2 -2
1139 1 10.46812700592148 15.856655396782315 5.52999730930482 0 4 0
1196 1 13.292458361378472 14.243945089109634 6.310463801596107 2 -1 1
1974 1 9.81001930948424 16.060217405606927 8.34373133787333 -3 1 2
573 1 10.544804726982115 17.468217869131102 6.833852635870271 2 -2 -1
293 1 11.345200632921873 14.868175042688383 7.325216068778947 0 -1 1
1713 1 11.888038140480674 16.77885701922343 8.925070169988643 3 -2 0
1468 1 12.595928903905103 16.586154233202 6.246601509854778 2 0 2
1634 1 12.621538216145437 18.336303841147966 7.422790343887761 -2 0 3
107 1 3.1333302607438394 19.008097716690752 6.611953534932651 2 3 1
2020 1 2.543725133512486 18.742249114238884 9.096159137217574 -1 -1 -1
269 1 1.1501404550597816 19.55663318414061 7.3976005063099475 1 0 0
770 1 3.872017437550005 20.321060920553286 8.278888078752658 -3 -2 0
339 1 2.4940363144691315 21.077245495386187 6.480318377930389 2 1 -2
894 1 1.7342040907664917 21.109817202176753 8.968478114778383 1 -1 0
337 1 4.82028147020422 21.722212742501643 6.957445442722307 1 -1 3
1124 1 2.980978029626141 22.727058589138313 7.931491972391684 0 3 -2
412 1 6.807392737315114 21.297470900285774 5.913220933188678 -1 -3 2
729 1 7.542648051141046 19.01198133153343 6.380704842240005 1 0 1
532 1 5.742810567992555 19.90061841635987 7.037660839951049 -1 2 0
1087 1 6.00651646875702 21.212436154366465 8.932166602683743 3 0 -1
1934 1 6.881471681200106 18.92672205101574 8.885730838224081 0 -3 1
259 1 7.869530539676215 20.65215206879781 7.9337757090620915 -1 1 -1
557 1 8.265245739768368 22.17683326285632 9.62796688906051 -1 0 -2
702 1 9.448621486131897 19.91432431958085 9.771346181663347 1 3 1
462 1 9.585522225448702 19.86072923444223 6.987143223003272 -1 0 -2
964 1 9.08947996120147 22.218241026720086 6.464139557742924 1 2 2
1576 1 7.065121912807065 22.928612229816945 7.442202409696506 1 1 1
1959 1 10.202373166214953 24.851691524902776 14.089034768345757 1 -2 3
1497 1 13.726496635913238 4.774978310882505 12.343876248113247 5 0 -4
865 1 10.865818271125448 21.580878757202846 5.649129669291 -1 -1 -1
199 1 11.503652616873644 19.33324430592202 5.771572531676651 2 1 3
1979 1 10.105126634396326 21.510517764055948 8.452799620878778 0 -2 3
1161 1 11.091463729542236 19.165716538417435 8.563211385149376 1 1 -1
746 1 11.901934965197308 20.896626663743064 7.509407330230595 3 -2 0
267 1 12.339992332499982 22.512022388426306 9.018460525566589 -2 -1 1
236 1 13.226073465276816 22.78582079660114 6.312189111861494 -1 -2 2
405 1 13.130372323111425 20.00440541435053 9.12497637289948 0 -1 -1
77 1 1.4984814515989187 25.653583008337886 7.629254933445524 1 0 0
94 1 1.6352527215852724 23.6391470680165 6.2366546715913325 -1 1 -1
437 1 3.7397828043194536 24.621744485952966 6.688082972372146 -2 -4 -1
1766 1 3.5900181313054036 26.624719841878466 8.33355562368205 0 4 -1
1671 1 4.147564013098553 26.87262616311992 5.849483386354487 0 -3 -3
922 1 3.2836114616352616 24.718365095757886 9.088763134375341 1 -3 0
995 1 5.203636506901584 23.757302763567477 8.055928484951991 1 1 1
694 1 5.316386029380242 25.23093600672606 9.690276944879477 -2 1 1
1268 1 8.501538131729372 26.556537907892064 5.529281615623931 0 1 -1
2036 1 5.619807453303865 23.890816920059752 5.769511854178523 0 3 0
309 1 5.683997834739781 26.025640383205207 7.047815379134018 -3 -2 0
1385 1 7.791052454635103 26.893537747199577 8.041043890394803 1 -2 2
1718 1 7.584058826618019 24.788249165951505 6.562540317654478 -1 2 2
1613 1 7.303430778638802 24.921337869237338 8.711427343816364 3 2 -1
675 1 9.061757474436023 23.86032663690371 8.102291800845716 0 1 0
369 1 9.661792180151002 24.224537498776446 5.676016408498275 1 -1 1
1798 1 9.461371976134577 26.0430513627309 9.5488192848712 -2 0 1
1810 1 10.824893431478054 1.1185876881198495 6.129220023683022 -1 1 3
547 1 10.386998146950479 1.213005399532299 8.417188352143567 0 -4 1
120 1 12.717956664808709 26.694661403360918 5.635011558989374 1 0 0
1200 1 9.938566231953613 25.757411606618952 7.115049485514268 0 -1 -1
589 1 13.706128597034956 25.790207390178537 9.47579574695497 1 1 2
1183 1 12.22519344079562 26.57928347857399 7.89430727317319 1 1 1
171 1 11.149908689506368 23.162850887427812 7.320798965644824 -1 -2 0
1386 1 11.756016868288478 24.881505661072097 6.38534324412186 -1 0 -2
1209 1 11.22108159103279 24.820087459719023 8.803883109167241 -3 -1 2
271 1 13.32595514650189 24.300818316262454 8.027919234731586 -1 -2 1
1302 1 14.149700659181512 24.447257622757046 5.2228295680724655 5 0 -2
1230 1 1.2991495928726327 2.0691373349280235 3.125668600713692 0 1 3
927 1 12.60208567463672 24.192815728800756 10.621958175524044 -2 -2 3
978 1 5.296950741626981 27.238493866920603 11.319899315175947 2 -1 -1
83 1 1.7515993877184273 2.1331682473048823 13.429338589575012 -1 -1 0
1276 1 3.8173051691957163 1.7027783281694489 10.083553863966387 0 -1 -2
1590 1 2.7715966840333373 4.296348025018787 10.132644475950798 1 2 -2
1510 1 3.6788915238339817 1.5572037346712255 12.435560987794814 -2 0 0
652 1 4.117852137153921 3.40970317943467 11.397129029910014 1 1 -2
659 1 2.0703612763477377 4.39989778542844 12.668875045005977 3 2 5
656 1 1.9327063824648367 2.5431634297402326 11.316248966542268 1 -2 4
1560 1 5.039249255309068 4.695623199013099 13.033130261724535 0 2 1
1234 1 8.48003033968951 1.7135619686333234 9.642372262618048 5 0 -1
1495 1 5.038843681451833 5.221524581462965 10.539571366251584 3 -2 -1
1165 1 6.235835948420998 2.5213285328815105 10.70891622004874 1 -1 -1
166 1 5.794859737360148 2.330156414153553 13.018454100674315 1 0 1
1881 1 6.76440250754256 4.386575222651896 11.943782114271574 -1 2 -3
792 1 7.97135351633553 1.5856322308621706 12.25015839042839 1 -2 4
614 1 8.927695738687513 3.3783610432538858 11.110258188912988 -2 1 -2
1792 1 9.349056267803979 5.141488281765921 12.541586766153138 1 2 4
787 1 14.081163227756146 14.294517315273486 3.7163959240757976 -1 -1 -1
1214 1 13.915102235857901 11.844196726780229 8.853706187458698 -2 2 -1
1696 1 10.086615133408737 4.965143133462581 10.204092864603538 -1 -2 -1
1226 1 12.68061791749123 3.0947979562150536 13.147099725635238 2 2 -1
1927 1 10.980164827170261 2.777538453319428 10.316964936347638 -5 -1 -4
1705 1 10.233837411020227 2.398231410312418 12.762128416597074 -1 4 0
1055 1 13.250107355983625 3.3723297855209506 10.600703373265128 3 1 0
1060 1 12.147823774385014 1.668959557043867 11.590786014432505 2 0 -2
2040 1 11.414072535802852 4.395358569903394 11.997850846745223 -2 2 1
317 1 0.9470204125811712 7.306710944776527 8.456206294771302 4 -1 -1
275 1 1.4313789440105678 6.679996522396843 12.86429611952851 4 2 -1
836 1 13.81988578810082 20.007869345636898 6.784654904026501 1 1 2
766 1 3.433868016954506 6.175745038337249 11.595675435535023 0 -3 1
1787 1 2.186022105708589 6.800006028438913 10.041049881060534 -1 0 2
693 1 2.501392952846229 8.567824211675818 11.454606520205736 0 -1 -1
952 1 4.359441177188219 7.825922369069271 10.448052104009538 1 3 2
553 1 4.217862247076878 7.795487807552654 12.953582228962746 0 -2 0
517 1 13.951308785007523 1.8459500786418586 4.664270990419226 1 -4 0
1737 1 6.427686098742725 6.925922424213974 9.6702588330004 4 5 -2
246 1 7.39101371294685 5.750821318737411 13.720627007687124 0 0 1
1894 1 5.262458716750673 8.994863698319119 11.95598779096207 2 -1 1
1366 1 8.00662653750086 5.91636335118125 11.076736529013939 -1 0 -3
595 1 6.775450554088801 8.188271087562232 13.384447190400053 1 0 -1
207 1 7.2652309289846295 8.40021503861161 11.308358405761387 0 -2 -1
1915 1 9.11600087548203 7.402335390217939 10.345630199111145 0 1 2
640 1 5.842038988035517 6.6852663399602905 11.926305471323783 -2 -1 -1
78 1 8.740019449825816 7.081114706394488 12.89029345390355 -1 1 -2
1472 1 13.846468491734132 7.557810087777106 10.032594636022479 3 2 0
1653 1 9.708886753095495 8.837362266624615 11.867831048284321 1 0 -3
765 1 11.910463051263335 5.687667048396299 13.449847553363288 -1 0 -5
184 1 13.181462197407917 7.279089131187453 12.29918996182557 1 -1 -1
1926 1 12.604614936608817 5.836317985808355 10.866242506312215 0 1 -1
963 1 11.972199042847505 8.365007344399285 10.726141875565576 -1 3 1
340 1 10.793621448578726 6.778647251521619 11.557357873166968 1 -1 3
1064 1 11.393909652629961 7.89120945574731 13.187224407267195 0 2 -1
256 1 1.240199909202458 14.194536403014467 4.683814987370782 0 1 -2
1809 1 10.675213518902465 24.970872889496942 11.122451517362807 2 -3 0
1650 1 4.203003043348431 10.031245469675408 10.471043245953382 -1 -1 2
1962 1 2.371701014346462 8.370851036290457 13.975780784387844 1 1 2
488 1 3.5688827285976363 9.952952082848576 12.832805938687049 0 0 -1
300 1 1.5044030403555633 13.026786095734261 11.53042062515256 -1 -2 0
842 1 1.9597221508074256 10.67132187065772 11.40460167056205 1 1 4
1631 1 2.8760375005510292 12.078105977769098 13.195216511877536 2 -2 -1
135 1 4.83361600739054 11.538003517642984 12.016003189547702 0 -1 -2
2009 1 3.3435848798102543 12.38985788111492 10.61832222018449 -2 -1 4
264 1 5.204303224518901 12.937263252231624 13.624357645883673 1 0 2
118 1 3.7667154041883415 13.864693527863128 12.4354514601252 -1 0 3
984 1 8.060590043170503 10.019314230708973 12.737631263150273 -1 2 -3
12 1 1.555114934371355 10.792083434970895 13.98954650321598 0 -1 0
1479 1 8.722912142109433 9.866257136871443 10.226629474623023 1 -2 -4
797 1 7.754900593418454 12.410512774621369 10.119221934689655 3 1 1
901 1 5.906413913259693 13.019885540056737 11.265379325689324 -3 -1 -1
217 1 6.761841352785679 10.683933348825033 11.102438756053234 -1 -1 -2
422 1 7.208518779714795 12.355410450096914 12.859534934677237 -1 2 2
1434 1 9.290057892541634 11.59751425895201 11.913837041354759 -2 -1 0
1301 1 9.630652862847123 13.156581538834887 13.069226629326248 -2 0 0
634 1 7.923711859371435 14.016938386589995 11.675035075955424 -1 1 1
1466 1 13.301210489582187 11.35090548022197 13.528032630510182 0 1 2
751 1 11.854610805866171 12.578929021038483 9.809989373138553 2 -2 -1
134 1 12.961195977723301 10.063148437869968 9.681945018724223 -2 -1 -1
1354 1 12.262628277416958 9.810904561280717 12.39641547584863 1 -1 -1
790 1 10.03018617648514 13.451856562959238 10.764154307008573 1 -1 -1
55 1 13.477506299510186 11.378592792287776 11.112619800905916 2 -1 -1
856 1 10.422291738940366 10.309024007292141 13.476675834408278 1 2 0
867 1 10.770734175344868 10.470046514299574 10.681688674035641 -3 -1 0
937 1 11.42659117745191 12.163682485042902 12.250882788364095 2 -4 3
467 1 12.850227054058603 13.73237001214512 11.238362782988682 1 2 0
1262 1 12.232751688166294 13.658284505870999 13.682601091210934 0 1 -1
1377 1 1.1173277658635212 11.738355840410996 7.204832728104693 0 0 -1
815 1 1.486248451487186 17.399694927294174 10.4799809587188 1 -1 1
495 1 2.4389153257718488 14.821999788188124 10.656136158294188 1 1 -1
507 1 1.7551308803891787 14.654053114876474 12.921523334196102 0 1 3
1522 1 3.2788609835530744 17.740122711823243 13.589680736143173 0 -1 1
1108 1 4.7274298970501984 15.483051826353206 10.715124440346596 -2 -1 0
1392 1 2.9568601366280363 16.40752393129491 12.067374690671508 1 2 -1
625 1 3.833535123582017 18.092333601161002 11.025087911333095 -1 1 1
598 1 3.9482217347118116 15.626151296136692 14.033821248228074 3 0 3
1467 1 4.996256015581487 16.823306637749496 12.506279264370948 2 1 2