LAMMPS data file via write_data, version 29 Oct 2020, timestep = 300000

2048 atoms
1 atom types

0.8343141999266663 27.517685800071867 xlo xhi
0.8343141999266663 27.517685800071867 ylo yhi
0.8343141999266663 27.517685800071867 zlo zhi

Masses

1 58.933

Atoms # atomic

1260 1 3.8501095429191716 4.032545485961572 3.143597591205687 0 0 -1
978 1 3.9431858541155087 1.744848365635725 2.227183406491184 2 0 -1
912 1 2.381679227627458 3.189302874445297 1.6786155671277432 0 -1 -1
391 1 4.349518722757457 2.0802976373182336 4.30001964961418 -1 1 -1
437 1 2.146365299149672 1.5887091743842165 3.076695327446493 -2 -3 -1
1345 1 3.094489854768619 26.174834549554216 1.9851961616570126 0 -1 0
1963 1 3.981360395340104 3.8691761230823762 5.466422376166226 -2 -1 2
804 1 2.6044719377798 1.7527144309463893 5.23322126094981 -2 1 -2
631 1 1.757327530534405 3.771100248983362 3.9765236363093885 -2 -3 2
1193 1 5.795332197093352 3.902665478367342 4.416111997525247 2 1 0
476 1 8.027688101299756 2.7324819443389607 4.121356002594412 -1 4 -2
2002 1 8.144575692666134 1.3761478781789642 2.2493933459026016 2 3 2
1759 1 6.5046781580817346 1.8881965590611238 5.255796179595323 1 0 1
386 1 9.409282282017234 4.173821526714761 2.8704798479753415 0 1 -2
954 1 7.785163114344393 3.25087248312497 1.8805120643952786 -3 0 -1
1956 1 9.199900104254679 4.425270197506256 5.332885126246775 0 4 0
1519 1 6.034435517814782 1.5577677467507436 3.1373305086130467 1 0 3
1056 1 12.719318901134384 2.3848392707162667 1.1428071645486058 -1 2 0
1306 1 11.040338006881171 4.173981962104428 4.21395581066778 3 -3 0
34 1 10.086781083234232 2.4290144354813545 5.081191977259521 3 -3 -1
383 1 10.03867329920639 1.889870953635035 2.7300257238513845 1 0 2
322 1 4.4284124987443025 22.476224958881055 1.0869317678112367 -1 -1 -2
556 1 12.093350108151812 2.6635653583975594 3.475414438578703 2 1 3
524 1 11.09200567541149 3.985565304228357 1.5973980152890153 1 1 0
297 1 14.091579251387099 1.108488331663409 2.4156413609139555 -1 2 -2
255 1 13.814886353887365 16.763697215783843 1.319939123600767 -1 1 -1
1043 1 4.916999363465457 5.711794667679992 3.74339398840133 0 3 -2
380 1 3.0690414388298195 5.589188650534589 4.694294786062603 -1 -1 1
819 1 3.376942990057647 5.9666861724706095 1.8151592877768972 0 -2 0
883 1 4.342629934165413 7.665610241269732 2.795290880114358 0 -1 3
638 1 1.9885066749754614 7.424373681012249 1.502856303063484 0 0 0
309 1 1.4854775594046061 5.714754421911013 2.946265292276463 -3 -2 0
1226 1 7.001397645983916 26.630596717901486 1.4245867398753844 2 1 -1
1626 1 5.817331304611087 3.6251159076255255 2.2903010260621217 -1 1 1
618 1 7.2282604797943195 3.741444277689304 6.17966847714565 1 1 2
676 1 7.386663215921283 5.079334643151516 3.41286892404195 0 0 1
1737 1 5.636864947729662 6.095170580863079 1.7702066366167655 4 5 -2
1831 1 6.540284115264141 7.153571857705765 3.7316848337491075 0 3 1
1874 1 8.156104338669987 6.4230084803846506 1.9680482502185361 0 -3 1
1454 1 9.237747949950375 6.226066540016464 3.9442122233186785 -1 3 0
409 1 8.015133103894577 8.523848915528923 2.807206580348713 1 0 3
1614 1 10.721609558984376 6.377869911881495 2.4212761505333207 2 -3 1
858 1 12.74581989378397 5.059899901118985 3.0078079904844572 2 2 -1
1771 1 12.016896511131353 7.710081417146823 1.4308171893506985 1 -1 0
538 1 11.281976938399557 6.1435672891824975 4.67433178307543 -1 3 0
958 1 13.801793169002787 6.810395230343265 1.6994102830178086 -2 4 -1
1376 1 13.476739034862552 6.52436835721846 5.333105616510844 -3 -1 0
1882 1 2.152105458314282 7.959591747273319 3.5611124075360405 -3 -2 1
1888 1 2.9363987100524636 9.305262982541917 2.243541530386719 0 -1 -1
512 1 3.743459602104285 9.671972621650134 4.191758485486585 4 0 -2
847 1 6.695035276987291 7.800960272386343 0.9545370293459279 -3 -2 1
1186 1 5.007846906497097 11.544621326557234 2.9670308978137214 -1 -1 1
21 1 2.386529965025376 11.264204023459001 2.7869705662872057 0 1 -1
653 1 11.74725451105341 1.1522340504022783 12.569786090681653 -2 0 -2
1516 1 5.480404662711267 11.206228947948581 5.025809654819517 -2 -3 -2
590 1 5.334672596132872 9.22855080110697 1.929172929171952 0 -1 1
1968 1 6.188289460464106 9.395296104025997 3.966853797357208 1 1 2
1936 1 13.629718110744562 26.667834958768232 5.924101424226254 -1 -2 1
227 1 7.343241852609387 10.741418774642547 2.565204676961897 1 -2 0
1921 1 8.43515188136448 10.147846260496303 4.163884534300541 1 0 -2
477 1 8.413708846792836 11.9088204545806 1.2796648165627933 1 1 4
1453 1 9.21821150302508 10.147744425596255 1.8843208741845912 0 0 -1
910 1 7.441029721216967 11.989137965597521 4.640335360389503 2 -1 3
1037 1 0.8691335737773436 24.760010668041534 10.067133895040284 2 3 1
822 1 10.197578438278878 8.421278447282738 3.261163442441974 1 -1 2
2032 1 12.646203241884665 7.247320966516759 3.2844060853535795 -3 1 3
312 1 11.484681294383334 9.534686615251967 1.906260589833648 2 1 0
1411 1 10.843422058937323 11.59241689736984 2.4440280723741115 -1 1 1
1258 1 12.475143350155875 9.593121883503825 4.0526490955552354 0 2 0
1115 1 9.34399940316444 8.337930906838675 1.112799613235463 1 0 0
1657 1 10.479566977778845 9.903041222993535 4.7182684041813765 1 -4 -3
716 1 14.078239272312588 17.051850308986133 10.263880376807304 1 0 -1
430 1 2.153044561225575 12.961538857787195 1.5580670462165553 -2 -1 2
1893 1 9.785037651938094 8.655104927605198 14.096538116780248 2 1 -3
1582 1 4.301885043223059 14.184358629111147 2.8874845607139545 1 -2 0
780 1 2.250093157805739 15.193222239073748 2.758815357835907 2 -4 1
2018 1 1.02061267446025 12.248054061190324 4.795570426535997 -5 0 1
1350 1 4.145472085890513 16.66089941055987 1.7748906583252024 0 -2 1
572 1 1.06061262914305 26.8691882132982 4.694125715767687 1 -4 0
82 1 5.1950420673267015 13.278086812607809 4.3771004686696635 1 1 0
1748 1 1.1581594940003697 23.757051440053278 12.061844330776031 -1 1 0
1923 1 9.450362541381057 18.244967741078376 1.601425023195718 3 -1 1
1547 1 6.593980662086536 12.742268020944971 2.465556355650676 -1 0 0
449 1 8.154320945416604 14.087439007176885 1.5881532982405673 0 0 1
1235 1 6.383906669079432 15.408057883197586 2.87872844854316 1 0 0
1257 1 7.98524429715097 14.315959405249362 3.962960808126891 1 1 -1
120 1 9.11356872587435 12.539562398851883 3.3233057501192302 1 1 0
664 1 5.896784023847076 15.179516106426155 5.0137567915805015 3 0 0
2037 1 13.201347451120718 11.396900987619944 2.8179308835394945 -1 1 1
1935 1 12.009196104171368 13.413255845024823 2.8478009436914893 -1 -3 2
534 1 10.240253019088604 14.579797037838828 3.7694409864485476 3 -2 1
2014 1 13.540448437482649 14.875375375870595 2.9867067424292784 3 0 -1
797 1 12.683434517885418 15.481648232178628 4.918983899841969 3 1 1
108 1 10.259699048368537 13.735962458648865 1.301280752755933 -3 2 0
1502 1 13.6466334032278 13.28710473972704 4.400715662301133 2 0 0
396 1 11.86212962446835 12.175175447741735 4.730995956110307 -1 0 -2
1541 1 13.73903406292137 21.98658287832644 4.4165343579646485 -2 -1 1
95 1 3.719087463381038 15.800921799881289 4.020085815902327 1 -1 -1
1415 1 1.865097665246707 17.60122077305521 2.330208645741415 3 3 3
320 1 1.3501993793738463 26.54455666368387 6.995254561201909 2 0 -1
504 1 3.4482399633276284 18.21042934788927 3.7432074300846487 -2 -1 2
569 1 2.2392538290921236 19.62641211578977 2.767933666571585 1 -1 1
1498 1 1.4746588790379929 16.524311612072186 4.292157274689824 3 3 0
1005 1 1.3505901623329906 6.9621014834671175 13.673165889187493 0 -3 2
1719 1 7.882615819457538 16.41572606093807 1.675088525207916 0 2 0
148 1 5.94946449408758 19.099400412213843 4.230581954969356 -1 -3 2
191 1 4.273972026864682 18.74006066563034 1.8681528272768668 -1 1 1
1739 1 9.1180504588126 16.40419957465513 3.43957544686837 0 2 0
1608 1 5.51584389524843 17.105507330849928 3.3391352641936405 -1 -1 0
1613 1 10.408265421203966 19.14413757789854 4.822710084774389 3 2 -1
1167 1 7.255511354267747 16.619243921290412 4.393908981284271 -2 2 -1
1703 1 6.686022279866912 18.762371011918628 1.9686143495404953 -1 2 3
478 1 1.3358816415203234 10.780043374972776 12.696541112261643 -1 2 3
1722 1 13.866729944835122 1.3997076774001536 13.873962215356475 1 -2 -2
351 1 8.465124526735647 18.528555614721057 3.6205700172177293 0 1 2
1853 1 11.655825989329491 15.935294722965308 2.8436513268263193 -1 1 -4
1785 1 0.9898423266832772 4.773122108424056 7.870615849025514 3 0 0
474 1 13.192634884593659 17.69244901475002 3.54956511647295 -1 -1 -1
1551 1 10.90910167970278 17.106767553805444 4.826266591480776 0 -1 1
323 1 13.272604621837742 19.122473515382172 1.5931399399090895 -1 -3 1
941 1 12.879251386462805 19.8902984695287 4.411215425876769 1 0 1
254 1 11.334215776627463 18.5292973683406 2.9394220622426137 3 -1 1
52 1 14.064985872090306 23.751245432877226 12.514604686913133 1 -4 -3
2007 1 3.7760092609528417 22.614418988597436 4.855666531403963 0 1 3
736 1 2.9686945114761465 22.11679644793303 2.861311418299534 0 -2 0
990 1 1.7360997587442935 23.186459836109336 4.66950999724742 -1 3 -2
1378 1 5.793448729155576 2.051783018454727 13.84792948641298 2 2 -2
210 1 1.5579791331026471 24.856236562134406 5.577291999541143 4 1 1
743 1 4.343165584873379 20.48908496847949 3.147171059361174 -4 1 2
17 1 6.537667566032067 22.735757933321466 1.2928927938655557 3 1 -4
69 1 8.357629052019659 20.26909028509646 1.6738663754008627 0 0 -2
1477 1 8.439158432262207 22.616157473801344 2.4110543075872313 2 1 0
986 1 5.323402650604399 22.42890301494423 3.38863481515092 -1 -1 0
1878 1 10.310269662926492 20.334975193692404 2.8049210679864593 1 0 3
1810 1 6.876309362818815 20.830986321714917 3.0983766421726533 -1 0 3
606 1 7.373114385069479 22.89942430999099 4.1901289781595565 1 2 1
419 1 11.742557146976091 17.47193578879513 1.0032778693673237 -1 -2 -1
259 1 5.536185819510331 21.126578097093173 5.075153081739549 -1 1 -1
429 1 5.660499826646655 20.61368295911901 1.3110466999733617 2 0 2
821 1 12.478159309238617 20.91323882705522 2.1420461562918556 0 1 -3
996 1 1.0751311329764768 21.109959450994662 3.3760135557011584 3 -2 3
641 1 14.169419173757671 25.81263975731648 14.072309869643355 0 -5 -3
1749 1 10.10058774663323 23.161231969043747 3.818928838741742 0 0 0
1105 1 11.482469183679395 21.503815125774572 4.20996718657868 -2 0 0
1804 1 14.158050244815342 22.626290347983502 2.0627173214174643 3 -3 0
1075 1 11.980781952427286 23.16235078481105 2.6076795696834045 -2 3 0
1808 1 14.070943402278543 14.155419739357596 10.455367038537062 -2 0 3
1102 1 4.037866040453288 24.124296947025496 2.5004199881221734 0 0 -3
679 1 5.235671428343903 26.26629428064173 2.803061959789189 2 -2 0
1707 1 4.163502982206447 24.534135075182068 4.651952228918172 -1 1 -1
394 1 1.9926890743476922 24.80764387448517 3.1699944406701337 0 0 2
1169 1 1.0794636112705804 2.589458818487652 7.511959364240211 -1 2 0
593 1 3.367607823846474 26.55108894550092 4.099070722069306 1 1 2
1371 1 5.286529526521748 26.829302293392622 5.30274092046333 2 -1 -2
1392 1 1.5632730996114788 18.8383837108028 4.70697719028084 1 2 -1
891 1 7.463903854708378 26.591167713392085 3.9786275680294763 -3 -1 3
1697 1 6.452396005502169 24.36664545671526 2.695627790703188 -2 -1 2
1576 1 6.28151808302049 24.68633449238564 4.722833451348871 1 1 1
1017 1 8.56175829623907 24.82066255835813 3.714664051804582 1 -2 1
868 1 10.014748839778127 23.97942356466536 1.6418280429455696 -3 -2 3
1661 1 9.749454538842164 26.8381181534748 4.365119717746225 2 0 0
328 1 9.426940206744298 26.13420188600669 2.370849379696722 1 -1 -1
976 1 11.65539907811665 27.14902852591258 2.8044336943487185 5 -1 -1
1238 1 12.532376732133272 23.890397827868448 4.496824134045328 3 1 -1
305 1 13.354235757356792 24.957143182988702 2.461181825201325 0 2 0
225 1 12.20289412269206 15.019605454312831 0.986425158794373 3 0 2
1518 1 11.190866137753503 25.138358350811334 3.0428307168696946 0 -2 1
589 1 13.691348711905414 5.654846534320851 8.954544152195536 1 2 2
848 1 13.668390341283114 11.733799282587722 9.723490204492752 1 3 -2
14 1 2.940857958093473 3.5914555751170214 7.630760945875733 3 0 0
1682 1 4.775662290266174 2.2506248638582935 6.8840458914847025 1 0 0
1812 1 2.883328380811388 1.3250300891222555 7.427523245278498 1 -1 1
1241 1 1.8581278193355948 3.165612356736526 9.425311141037172 4 1 -1
1188 1 5.4633356449429895 4.0310562388087 7.565189653989027 1 2 0
1249 1 4.5735631978468385 3.7126022148147455 9.688946750886723 0 -1 5
1799 1 13.720492185116283 11.069284358098372 5.23299611868286 0 2 1
166 1 6.914616204887664 8.288018872989241 13.45551640419722 1 0 1
931 1 5.686349572571098 1.7910641426050358 9.022262324779465 -1 -2 -2
783 1 9.517506836835251 2.8434873967878085 6.939214938446611 0 -1 -1
837 1 7.4634166792082715 2.4088282915296864 7.724088560124952 -1 1 0
1486 1 9.578949816163101 1.6546129593229555 9.206250261538312 -2 0 1
1960 1 7.576451823560595 2.0261676630614254 10.196366661785776 -1 3 0
1993 1 8.70531543521873 3.7367511633860735 9.153774102229152 2 4 1
79 1 8.567910765792622 1.092399692708412 5.943358972268698 1 -1 0
1420 1 6.624955089079708 3.795288121390918 9.651293320645898 1 0 2
744 1 10.40973221644099 1.1325740229729517 7.2691082474166 1 0 0
359 1 11.622777405221589 1.002641357642285 5.188558317035175 -1 -2 0
1638 1 11.06751949142473 3.1802314416452253 8.547946212991683 1 2 -3
1986 1 13.647050650775995 3.8948229476459013 10.609446462874445 1 1 2
19 1 11.888438818522912 3.2703766333369355 6.251472344567155 1 -1 -2
1002 1 12.541826032333264 1.6033297475736406 7.036251782113438 -1 1 0
1361 1 13.652019313202196 1.6635318943062032 4.519286605616454 -2 1 3
1425 1 4.036250945396953 10.745158088989008 0.9763061927980834 0 1 0
1602 1 4.693121459405089 7.65827391247391 4.98038634845361 -1 -1 1
1014 1 0.8593531138001014 6.934297459760899 7.407346730306203 0 -1 1
293 1 12.912119144388381 25.883989559657664 12.248150844987736 0 -1 1
41 1 1.5165627726009507 4.215978331578199 5.8947059013165015 0 -1 -3
738 1 5.212179851017085 5.568839777296912 5.965284223166505 3 2 -2
598 1 2.5318349137874288 7.754303689551468 5.757998956681261 3 0 3
900 1 4.500629145662714 7.67339231069849 7.393109152940655 -2 0 3
2040 1 3.1510288901261396 5.721880597627173 6.97368225994997 -2 2 1
46 1 4.5552759092823765 5.709381527034731 8.67602554568219 2 -5 1
959 1 5.592048504614195 8.434082218057615 9.788381438537266 0 0 0
125 1 7.448091023054713 6.007334431405387 5.833162286404594 1 1 0
632 1 7.763099856497539 5.098901307388284 7.94831115181446 0 1 2
1129 1 6.128536935072485 6.622074392992689 8.142839632581726 4 1 0
1720 1 7.591651141953324 7.568269984931853 9.604949635268012 3 0 -2
614 1 9.24326869214345 8.975583020425374 8.92869812650418 -2 1 -2
1396 1 6.703939662084572 5.827153029623243 10.50494570534988 1 3 0
368 1 6.421906584503473 7.975291930403174 6.209172321021718 -1 1 -1
1714 1 8.540591499678285 8.138018288862497 4.9982479254782275 2 0 -3
160 1 13.14063141027342 3.912584077373574 8.001165475393577 3 2 0
1619 1 9.581633468473699 6.397568816219825 6.116731441803503 0 3 -1
1250 1 10.340804440541424 5.207234115098669 7.526390954312846 2 -1 2
601 1 13.474756716249022 3.860554067212088 4.81574783921735 2 -2 1
1033 1 12.235165196078524 5.570691404220336 6.712601068833175 1 3 1
698 1 13.6002247677328 7.123958697289602 7.526924395823249 -2 4 0
885 1 11.181814744671119 7.240204989974964 7.675295353378749 -3 2 3
1972 1 11.576313939361084 8.10046416515241 5.471515629307124 -1 1 3
763 1 14.169516337998667 13.307560248223922 1.8718846905190707 -2 0 0
390 1 2.4119016149753896 8.866245712271535 7.620799649976243 -1 0 0
1025 1 1.7999247308929442 10.06172266924367 4.85195408208555 2 0 1
1178 1 3.51569762129181 11.007066130909124 6.735427843231572 -2 3 2
1537 1 4.642510091919753 9.764297419761848 8.305504847411243 2 0 1
1589 1 3.1627866698372062 11.983138841347555 4.684809527955266 -2 -2 0
672 1 4.67389919506762 12.358700083815856 14.075838094699886 2 -1 1
1659 1 2.2428557331415373 12.947372331373433 8.927788861377877 -1 1 0
1285 1 5.172737902431532 9.452453228477696 6.248061552496336 -3 0 1
930 1 5.84408749517599 11.455698285849536 7.250498971799537 1 -1 -1
260 1 9.505524181678005 11.270553895007913 5.675515380728474 -1 -1 1
1696 1 6.812149331053323 9.084134751189083 8.119592881241113 -1 -2 -1
12 1 7.5724734863863 9.96835652523892 6.19302616840683 0 -1 0
1809 1 7.46550718775781 10.950101739155805 8.866320191611072 2 -3 0
89 1 9.666625077889972 11.121844339661294 7.95975948003455 2 -1 1
1618 1 8.238110364868144 7.672737483301024 7.421821921577203 0 0 -3
1574 1 8.028524422645091 12.031955003835966 6.980978631617705 0 1 3
1326 1 8.591189594264563 13.003604192798534 9.320004244316149 0 -1 4
1460 1 5.867256946177861 14.15005892046573 13.352171221395649 -1 1 0
467 1 11.41965270053558 9.188920917693771 8.506016220476017 1 2 0
732 1 10.75362547790136 7.357867976930611 9.95678242939431 1 0 -1
65 1 9.852702292922602 9.26768054966762 6.715551055182982 -1 1 1
174 1 11.863341473351122 11.279450424016941 8.573156718450381 -3 -3 0
809 1 11.844446960036858 10.578032329963085 6.403415494618473 1 -1 -1
60 1 2.6879908238705363 13.907812773510738 4.638044186869222 1 0 0
206 1 4.272987537549248 12.193378123300013 8.69537001675847 1 -1 -2
1401 1 2.201500692159664 12.978181664172459 6.6365144035951635 3 1 -1
1557 1 1.8386699271938398 15.648771215573436 6.085395925762223 -1 -1 0
1609 1 4.300822219318654 14.153074571688624 8.20866045900914 2 2 -2
495 1 2.1468348092122143 14.94438732942274 8.154011883155906 1 1 -1
421 1 4.442909967571193 12.994871880734676 6.445809652791402 -3 0 4
810 1 7.457540874167258 15.68663431330476 12.644447862597474 -2 0 -1
657 1 6.543595261472159 13.610250682704423 6.555357618740759 -1 1 0
581 1 9.099950234374958 13.473317463812224 5.5211398914678265 2 0 0
250 1 8.46707020022091 14.157938943087903 7.484128207981614 -1 2 -1
1629 1 5.516827389365308 15.747297288676672 6.988571778827636 -1 -2 -1
122 1 7.862097070874757 15.735269415009597 6.159530662930208 2 0 -2
995 1 6.498596640728976 12.889727016269498 8.7224931466058 1 1 1
1491 1 12.46793742994564 13.517470903308542 9.011655748219502 1 -3 2
674 1 9.808327121771459 15.275224547620835 6.081772621890799 -2 1 2
97 1 12.825661183624696 12.628819249896742 6.728666537068413 -2 0 -1
455 1 10.584829866391107 12.597621324943855 7.028279633020979 1 -2 0
1055 1 11.402783700696476 13.982184670554327 5.592322266791287 3 0 0
220 1 10.607654449283913 14.661340938212607 8.168205667056041 1 -1 2
1400 1 12.811645881033805 14.738212614416335 7.238364252847067 0 -1 2
1445 1 1.7950989982889665 17.803684738396754 7.998328186123822 -1 0 -2
937 1 3.748162212919807 15.034641672986329 6.066564555052384 2 -4 3
671 1 2.924547140122187 17.528092596695107 5.990984843477693 3 3 1
1746 1 3.5103236429083644 16.621804290324516 7.823250263818216 3 -1 0
88 1 3.4654229396780396 19.059225529237164 7.794578776287498 -3 -1 -2
615 1 1.8139189578011745 19.571328052219183 6.662061309480173 -1 0 -2
1324 1 9.101490652309154 16.76343787887251 7.866394955253368 0 1 3
904 1 4.849436005260965 17.178757071058865 5.522484713742996 0 -3 0
2004 1 5.710168201573897 20.003416729215637 7.241980358712842 0 -1 2
772 1 6.676669880690974 17.718299537204178 6.059064667985294 -2 -3 0
1427 1 8.127170526575465 18.884474327298783 7.602165188699707 -2 -2 -1
649 1 7.145700837435652 17.04928541578456 8.380193484892265 0 4 1
987 1 7.9033168916609045 20.98130693084013 8.499820112261851 0 1 0
107 1 5.348627888342771 17.86940368446884 7.631676237136294 2 3 1
574 1 9.080138814385947 17.662520098482968 5.602313206328749 0 0 3
1119 1 13.33293870876178 17.83696076776564 8.02794343167054 1 2 1
1827 1 11.77995128301549 16.62115360730211 6.827468218823896 0 0 0
161 1 12.035492864479583 19.62315038631554 8.118509234183069 -1 -3 0
925 1 12.704962235792843 18.391983450801703 5.7139760138248334 0 -2 -1
1203 1 10.693976863303527 18.298991751590417 6.932849899853701 -1 3 2
1471 1 11.223876967855967 17.29410747877317 8.954272762609767 -1 -2 -2
1863 1 9.803651731461695 19.15277045727578 8.838633133586228 0 2 2
909 1 2.7468382546148664 20.771480963129584 4.553771604508283 1 -2 -2
1251 1 1.8172339578129588 21.94129008764967 6.646849382047753 0 0 -1
1377 1 3.8900378844677515 21.19846841150205 6.842370101337176 0 0 -1
51 1 2.004666886752764 20.47875442691852 8.794729017199774 0 0 -2
709 1 2.9738718802400186 22.526013046679232 8.543232483507488 1 1 2
663 1 4.515691738704181 20.428677311445675 13.961229270506648 2 1 3
1233 1 7.779384485040341 19.729874106146724 5.620724548317889 -3 -1 1
1558 1 5.812416722396688 21.864747522155096 7.92425326525631 0 -1 -2
1368 1 4.149068828059016 19.38843570714343 5.486336048724968 -2 -2 -1
1982 1 6.801115625976915 23.222162752757303 9.71934688911657 1 -1 3
417 1 7.717962337267266 21.617927673288808 6.346345362095606 -2 1 0
327 1 8.984921872457326 22.822417839311434 7.658247179655463 2 -1 2
371 1 9.087822730761827 20.9974540339426 4.395302158364344 -1 -2 -3
1265 1 10.24947693431689 22.16407017147991 5.899052950157305 1 2 -1
1416 1 9.625404999647715 20.338379810736217 6.835076414182733 -1 -1 -2
777 1 8.612417498813503 24.547111000445145 8.64060736493915 -1 -1 0
1867 1 11.582028198655616 20.316486057786378 6.169135212221286 3 0 2
2026 1 13.954279310603807 22.770289229081666 7.9811102527354665 0 2 2
1510 1 12.374696961305746 22.704637158389975 6.23503408817634 -2 -1 0
1125 1 13.521975490356345 21.095154774476242 6.637450387671875 1 3 2
282 1 12.636743450270114 24.29372419276704 8.228226214663028 -3 -1 1
1373 1 11.593542944441278 22.083720051933344 7.9075588180365415 0 -1 0
457 1 14.053596852345676 20.273191758981618 8.892947119042724 1 -2 1
1937 1 10.028913993503833 21.41992413767536 8.848021268270976 2 -1 3
317 1 5.073299016101474 23.633112584220235 8.472834163324746 4 -2 -1
510 1 3.278079602566848 23.47848503679137 6.762825980301823 3 2 1
1315 1 3.224008476436822 24.66788595120573 9.279208081806733 -6 0 0
1517 1 4.310723865466109 26.327238114694552 8.637585618781426 -2 -3 1
307 1 3.4199974583603048 25.807797558386717 6.691187049520166 1 2 -1
701 1 1.4164778884729587 24.26885723688076 8.050652381331915 0 -5 2
63 1 5.1575366970142404 25.054412314216584 6.92091866780693 -1 -1 0
2047 1 5.666810500644375 22.9290762593745 5.935122585448186 -1 2 1
583 1 7.437376496310491 25.69975114235334 6.039292550568465 -1 0 0
1270 1 7.06133573232294 23.805358644609495 7.313508298520902 1 0 3
1455 1 6.131789452346153 27.074390782979265 7.335267915612776 2 1 1
1869 1 8.132001584042534 26.959527420135522 8.05306382191075 -2 1 -2
723 1 8.567602797711196 23.598976217206047 5.801021716191906 1 2 1
685 1 6.60292808273992 25.50882609509822 8.642421619852314 -2 -1 0
802 1 10.77946022379231 24.006585823704622 7.178066127322819 0 2 1
720 1 9.033518030666093 17.141342432444063 13.69141686463784 0 0 -3
1858 1 12.893641901795574 26.103138958350048 4.144383864864416 -3 2 -2
1063 1 11.983068892722939 27.44559584227901 8.922520623146342 -2 -3 -3
381 1 10.484093943767641 25.82311613484562 8.53173169584838 2 -1 3
554 1 10.777232098455864 24.83219258211235 5.130505508146583 -1 -2 1
757 1 12.565482605160195 25.59775929430718 9.995443756597858 1 2 1
94 1 9.398421014307646 25.7007270171109 6.611352366031601 -2 1 -1
1586 1 11.746008542424917 25.98077922156224 6.625587729703643 -1 1 -3
2003 1 13.848713164435571 24.303781954138525 6.14517176532117 2 0 -1
1269 1 12.986938033818495 18.073014494410526 12.29530536664463 0 -1 -5
887 1 4.661802745099065 15.875080880137887 13.685523183349614 0 0 2
1959 1 3.7973864194693103 2.4855224756064835 11.517329260625587 1 -1 3
20 1 3.3772139430077788 1.7876804169411242 9.456589958610465 1 -3 0
2029 1 1.9406565307260015 3.999717443480241 11.406935145477885 0 1 2
1709 1 3.745535837504951 4.504637899032389 12.126415839739893 0 -1 0
49 1 1.2262794035264086 2.0997306436887935 12.862330515654186 1 -1 1
525 1 6.603162048157579 26.88322617396913 10.58121699046161 2 -3 0
1128 1 5.754420524585484 1.8292315094512483 11.683180336126817 0 3 -1
765 1 8.170885882266246 4.362104977461463 11.098807237887959 -1 0 -5
1111 1 7.862781953349904 2.381443835042976 12.337243032291186 0 -2 0
345 1 7.273535278631866 4.096911153900981 13.60086815607447 2 0 1
594 1 9.950793614444603 1.5267886749949529 13.694926408368309 2 0 1
924 1 9.913652107506586 1.705548148902051 11.244518439554904 0 -1 1
786 1 5.994310985196436 4.188634851795966 11.586158769106211 0 0 -1
1641 1 1.049013861274821 16.76384858650678 13.954967868179144 1 0 0
494 1 4.4450590692828165 12.75683532325717 1.1987744168182755 -2 -1 2
1891 1 10.174505630567465 3.869810167200204 10.77108975404062 -1 1 0
1829 1 0.9969286314002319 26.48955530506209 12.996730862410411 3 1 -3
718 1 11.282588095311683 3.263701168761398 12.778878642034513 -3 0 2
1955 1 13.282653333943813 1.0468880139635723 10.866526994056198 -3 -2 1
393 1 11.764206612983338 2.375105670510888 10.3717639525916 1 0 1
1721 1 10.079860928279208 15.96719564097053 1.3556244395021393 0 -3 3
1534 1 9.340858672575331 4.174045275678987 13.020460887838492 1 0 0
55 1 1.5885517519292947 14.571191393693585 13.3599813166146 2 -1 -1
522 1 1.1013886716492074 6.114566573591854 5.001288489001548 3 0 2
901 1 3.1769833073334275 7.405165762457854 9.078047941846554 -3 -1 -1
1351 1 1.0870192145200543 9.091006357256159 8.932601152411992 0 0 1
1648 1 2.480340196208024 5.343223907998302 9.38410930164643 2 2 -1
1488 1 1.8051876115728875 6.189811554547991 11.708007163829457 -1 2 1
1146 1 2.4804858574809723 8.143563413475826 10.991619149476044 2 2 1
529 1 3.4775844124612 6.655055234297069 13.023728623696039 2 1 0
1303 1 4.207043918682646 6.402532163559317 10.769032000291377 1 2 1
184 1 4.423724788492734 8.184480890532882 12.419535767506096 1 -1 -1
979 1 5.778294225057598 6.175293751634686 13.06505495598377 1 0 1
566 1 2.3672397839768053 8.776640770715979 13.34713745865888 1 1 0
1584 1 8.221807298712857 6.10707072802345 12.620061974322066 1 1 -3
1680 1 9.161765865648633 6.262217536838803 10.761809418089856 3 -2 3
1656 1 6.335812566937152 7.548033142764567 11.51534627079748 2 2 -2
859 1 8.911885551388423 8.18742642556645 11.674935615588527 -1 2 4
582 1 7.6320063785433 9.581060191451462 10.591172095387684 0 -1 -1
59 1 10.949953922580537 25.661157541905705 12.7564848937102 2 -1 2
1275 1 13.712808218981085 9.66239146446047 9.205607452130506 1 0 0
302 1 8.882735193463938 26.2929574841293 10.091871237494 3 0 1
1734 1 14.141966289976002 16.778815369244803 6.307686005307355 0 -1 1
1287 1 13.04902467645383 4.693618122327728 12.412374876205535 0 0 1
263 1 11.139433100656676 5.446269871510185 11.986507413084942 -2 3 -2
7 1 12.72012420390486 6.255669351542796 13.829927579118522 -1 1 0
452 1 10.996467891173827 7.569803498426254 12.241661558502857 -1 0 0
1560 1 9.292850167951386 6.429253390298802 8.813577814359826 0 2 1
778 1 11.59994848068711 5.257128010939501 9.616533234386386 0 1 4
344 1 12.80119101115955 6.499542123406345 11.475273835243701 1 -1 1
1901 1 1.3666716360042406 10.005886803911412 10.756753268653336 -1 1 0
971 1 4.7996998875828005 9.787990676187913 14.025062439079543 -1 0 2
133 1 3.7537703286417883 10.587786864460721 12.444809136660716 3 -1 0
444 1 2.786548185712757 10.589959416560639 8.838413649753017 2 -1 1
695 1 4.037974888019704 9.38410331769378 10.657691775815117 3 3 2
1870 1 5.434863996284748 12.048244982418561 12.006061319350307 0 -2 -1
1225 1 6.052549466423965 9.851129278813037 11.9890215025337 -1 -3 2
1364 1 3.117747358109058 11.6888003723506 10.791042901267064 -3 3 -1
1957 1 5.456560615306305 11.156798100409981 9.999135739694783 -1 1 0
1597 1 6.54131203515981 11.035025396273346 13.895718836724564 1 2 0
1027 1 7.580985358335977 11.950238170133643 10.857076659100603 -2 0 4
1380 1 8.445471744925085 10.280530415605279 12.674725479639681 -2 2 0
560 1 0.8928409719477034 21.678714272955993 12.149642496812227 -3 1 -1
136 1 9.517987558761218 10.73616282315688 10.173740448256755 0 1 -1
354 1 9.752504743464542 11.722288876135154 12.068903983625296 -2 2 -2
321 1 12.31996624009709 24.42531612432164 14.043971231925191 -1 -3 1
1552 1 11.814041801522945 11.188884514127672 10.682699739749879 0 0 1
1052 1 8.319993456765838 25.132603783909495 13.421748433872127 -3 -1 0
279 1 10.465456639107497 9.59137150394806 11.773668157788627 -2 -2 0
1208 1 12.968369088837731 8.494828987923142 12.854271388160406 0 0 1
1254 1 12.085737765858177 8.93087835465013 10.676347448604554 -2 2 -2
1913 1 12.592635818410487 10.71604270936927 12.854336140431394 2 2 0
202 1 13.951519222855762 12.157901272777504 11.912728318100676 2 -2 1
2036 1 1.6923280963769942 1.0285093558385925 1.0589927916002433 0 4 1
1796 1 3.7910132686413514 13.702787984981018 12.180543791424903 5 -1 0
1514 1 3.317986185198766 14.50468937318351 10.18923226775641 -1 0 0
1522 1 1.7866821652988383 13.388049660892387 11.483412480995598 0 -1 1
644 1 5.1580555024668024 15.23780172834886 11.462375383960453 0 -2 0
1332 1 1.053778465775543 16.5589284895043 9.857370018346021 -1 -2 1
724 1 3.303960102612671 16.57228589779427 9.843142268244478 -1 2 0
1755 1 2.164995597362881 15.624579486492642 11.6556562022688 2 1 2
552 1 10.942468812318495 26.770022673524213 10.836405337365038 -1 -3 2
881 1 7.877935501107623 13.045896416675218 12.708674765260657 -4 -2 -1
23 1 7.010960540490971 14.234680987723149 11.075971792230815 0 -2 1
245 1 6.4240521192279445 15.149561254186047 9.083758448222746 0 3 1
502 1 9.506142341746669 14.18151372108758 11.268021006524332 2 -3 2
1234 1 4.964693143347856 13.334662039832414 10.459801217369405 5 -1 -1
1836 1 5.3032277509722565 17.448937850957275 9.991492598675363 0 2 -1
291 1 11.717321160373867 24.053039550687775 11.669260037741786 -3 0 0
658 1 9.249898396302108 14.579073430945023 13.553257766994378 2 -1 -2
26 1 10.821016664831296 13.140201330097904 12.915753978302716 -1 0 0
236 1 12.608594401117095 15.831200893250179 9.440780182548108 -1 -2 2
1419 1 13.434077129623509 14.053172296716005 12.967284766321088 -1 -1 0
908 1 10.645535374330072 12.695692282959621 10.195801657703484 -2 -3 3
223 1 11.19297436374886 15.268935782263148 12.82502425029512 -1 -3 -3
543 1 1.9995501160980802 19.58471728930972 13.264260011640408 2 0 1
705 1 8.589236092789871 15.145676313683898 9.30872879228347 2 -1 1