LAMMPS data file via write_data, version 29 Oct 2020, timestep = 300000

2048 atoms
1 atom types

0.943765067413425 27.40823493258368 xlo xhi
0.943765067413425 27.40823493258368 ylo yhi
0.943765067413425 27.40823493258368 zlo zhi

Masses

1 58.933

Atoms # atomic

1052 1 2.705057038823437 3.388881110160201 4.09003009926672 -3 0 0
1230 1 2.901746424569122 1.7154933181351772 2.550134209876151 0 1 3
387 1 5.153833141485436 2.1817420211556042 3.0330607565988394 -1 1 0
1963 1 4.2660998524296705 4.525384565254617 3.0546083301787705 -2 -1 2
826 1 1.8575623285439238 3.8520949913828573 2.1462220471599665 2 1 1
540 1 0.9641365542045927 8.319023738128141 1.5894721116487616 0 1 3
1431 1 4.8359662441054265 1.039100471570357 1.5026073747364221 0 1 0
571 1 1.638414483200639 1.8609987940575068 5.134030498577855 4 -2 1
97 1 6.364742359158509 3.9096136728546855 1.8217577352985495 -2 0 -1
1202 1 6.636494373892105 2.2941142529333254 4.8098465012634986 2 2 -3
2041 1 7.0671722766387655 1.565747359299762 2.160688292582546 1 0 1
1611 1 6.1189797956542815 4.490361632987813 4.209452473218546 3 -2 -1
363 1 7.822545243584102 3.2841790314747237 3.370506132475612 -4 1 -1
918 1 9.108869054731318 5.014336310104982 2.3072100512978873 0 -1 2
224 1 8.05661524666682 5.011621831266364 5.109439529521274 -1 -1 5
684 1 7.204068730527256 5.673210762988973 3.021033803342923 3 1 -1
177 1 13.8459495999925 13.727277273123622 8.106834825277197 4 2 0
1190 1 9.82542719733576 2.4302814829195283 2.6868176319609454 1 -1 -1
1577 1 10.741851901903305 1.7427317792566188 4.519562807729965 0 2 1
1566 1 10.410048059171148 4.067160754260245 4.318621877236225 3 1 2
1404 1 12.052976769919178 3.152464296585756 3.2200977065332714 -3 1 -2
400 1 12.637669087680264 4.691538676338662 4.536587794230417 -4 -2 0
297 1 13.237550804169294 4.769028919764663 2.0372628904847243 -1 2 -2
744 1 11.434682556730866 1.4561478407753055 1.9042599427981421 1 0 0
517 1 13.440428771100505 2.2780318727682056 4.845631935990329 1 -4 0
314 1 8.87457235850631 27.00764672914204 1.1946708893823335 4 1 -1
429 1 11.420291669120672 5.781769780870819 3.0453792231066052 2 0 2
880 1 13.902821206058968 2.270329238912325 2.506357639871314 1 0 2
468 1 4.594703977099717 8.479297163817067 1.1901890561332387 -3 0 2
125 1 1.4093367956686547 7.523625691814926 3.581758084452947 1 1 0
128 1 3.32906042716457 6.7990468922178975 2.7275337697635287 1 2 -1
59 1 4.424932233480153 8.61954878788874 4.052082839136789 3 0 2
1180 1 1.37753688150849 6.161861587509193 1.4959436864717284 2 -3 2
1150 1 1.7929260371523044 5.429930213108859 4.181635922722716 -1 1 -1
1646 1 2.4267190111917163 9.407564361880578 4.673791126095732 1 1 -2
1034 1 2.8729744272514823 8.948403046787279 2.360504203427378 1 -3 1
1807 1 3.395621017736565 6.825490262750294 5.090764967606928 -1 -2 -2
445 1 1.0940944963033885 5.320897870069178 11.224649999628953 2 1 2
417 1 5.2611130070724625 6.501658689067221 4.137307751374761 -2 2 0
1378 1 5.4109076971655305 6.328995063898918 1.677853976803056 2 2 -1
1706 1 8.315285502258654 7.298932181414151 1.9993940501381542 0 3 1
1946 1 6.220700833275974 7.856026611332717 2.975355996420391 -2 -4 1
222 1 8.454639442983968 8.762864211445878 3.744943559557851 3 -2 0
1855 1 7.334254713610287 7.286962569120262 4.994391008745027 1 -1 2
415 1 7.2708264061945655 9.555670662028618 1.8947553960870378 2 0 1
1358 1 6.546134484478906 9.350505783111638 4.67131170659702 3 1 0
1658 1 9.309630239536734 6.387031071822641 3.7786319158797426 1 1 4
493 1 14.044807074313935 24.844487617632815 14.083636216980175 -4 1 1
507 1 1.3389766968976542 15.058791991583604 13.012407450519236 0 1 3
407 1 13.697829234418357 6.488263271177996 3.2777852608093183 1 0 -1
633 1 12.498436476088418 7.326242274064846 1.7168280210365436 0 0 -2
1289 1 11.803631746458077 7.2499937078959915 4.424014151991261 -1 3 -1
403 1 10.302046839619848 8.019789927822178 2.566869738566112 -2 2 -1
1188 1 12.818291990428936 9.129440163901467 3.324788980206128 1 2 0
1403 1 11.595303781748143 9.61786022490139 1.7562901338532448 2 2 2
1014 1 11.11245429488457 9.336771413107922 4.350774299349544 0 -1 1
590 1 10.703903668423422 5.83896216667837 5.555475448200823 0 -1 1
418 1 3.6714579455694376 21.78745006304524 1.2206353334728723 1 -1 0
1733 1 14.088907047572828 16.993226008939374 13.762112408602905 1 2 -2
839 1 3.2714331272333768 10.807904673367993 3.319003643336725 2 0 -2
890 1 2.166528454935963 12.11370550916584 2.1391549986900427 -2 0 2
2017 1 2.724987004317224 13.649569885055056 3.437128580783217 0 1 2
1096 1 1.467221455395275 12.025962090478766 4.366124892670797 3 1 1
909 1 4.731809153337017 12.699246733684275 2.3573174798892746 1 -2 -2
2018 1 5.290617829208317 10.39993275919271 2.8109296651306472 -5 0 1
329 1 1.083443120575291 10.06226101084731 3.2754068834042878 1 -2 -2
1171 1 9.682458634428901 24.814532725249265 1.370301215592067 1 -3 2
1833 1 14.017629336843914 16.502120664050842 2.79960358599621 0 -2 1
1388 1 7.719205184998177 11.22425615624083 3.603712568664472 0 -1 4
1082 1 5.902140158761413 11.88905864956105 4.206531564759084 -1 -2 1
152 1 6.87667120858068 13.448429109897734 3.189569565218244 -2 -2 -2
1585 1 8.750667558899988 12.838410179403336 2.290673351370452 1 -1 1
1726 1 8.461541517963688 12.946932388776153 4.891873447134971 1 0 2
910 1 6.725921852633634 11.94150703790447 1.7185687414191813 2 -1 3
1906 1 9.864945303024799 10.279968014766627 2.905003084491764 1 -2 0
1965 1 13.243193208620614 12.80908549280856 2.465082508087878 -3 1 0
579 1 11.992225075287262 11.17887729694334 3.271113810657271 -2 2 -1
893 1 10.21587117224506 12.050861419858983 4.175192538672512 2 1 -2
1270 1 12.5948271067355 12.851163902727928 4.850878490172104 1 0 3
1928 1 13.126993748533913 10.32806371754749 5.031438261460623 0 1 -1
1003 1 11.456416037199634 13.547879149075824 3.1066554870042355 -3 -2 2
899 1 10.949612667804168 12.058306308458237 1.656026635513421 1 1 1
969 1 13.992404249035387 10.549787423610159 2.3095344715192194 2 2 -2
1541 1 9.761028983192382 23.25527428089228 10.264891692394581 -2 -1 1
805 1 1.32788646797901 14.187496014873782 1.5737858328493384 -4 -2 -1
889 1 5.215328867823581 14.322323926350185 3.9092464775170503 2 -1 2
1061 1 4.715444781971751 17.167998547399854 1.5991010835508601 5 3 1
1760 1 4.064448390471713 15.168016074381821 2.43630751159937 5 -2 -1
42 1 2.031760289884275 15.785943021257001 3.2110648662654304 -1 0 -2
1347 1 2.8343599487229447 18.137817993653748 2.5570878869799523 1 -1 0
253 1 4.120370245972089 16.90806921358641 3.879028456734188 3 0 3
897 1 2.135101522131082 17.2268740916795 4.843583616691934 -1 -2 2
1765 1 3.5384473496218103 15.190575182277158 4.782952607018901 1 -2 2
260 1 3.9245620738071523 11.083952183861362 1.1124395505447324 -1 -1 1
336 1 9.515265179545954 14.377259525062934 3.850021685013448 1 -3 3
1785 1 5.97760799598614 17.89132341279219 4.7484418591886435 3 0 0
1399 1 6.010052963387156 14.475428847871592 1.5500245592809723 0 1 -1
1176 1 8.247530239836555 15.441917294205311 1.9370039030270214 -2 -2 2
574 1 6.54020302443372 16.157470769483396 3.0932161281677737 0 0 3
1435 1 8.311477434822429 17.66312080344172 1.6860323131228219 0 0 -1
477 1 8.21479323959117 17.196178900149782 4.194271127921953 1 1 4
1901 1 7.738088210700949 15.224504365166496 4.501096757763234 -1 1 0
521 1 6.233407211600094 18.266699503641 2.6287426904117925 5 -1 2
1139 1 9.75257241481313 15.915359688372911 5.542351782527203 0 4 0
965 1 10.017261911115671 16.503341007387256 3.151858193504148 2 -1 1
1758 1 9.024579836671277 19.03529055259903 13.977404087621919 5 2 0
1849 1 4.011673537081534 3.0303626901256417 1.1388094505198105 0 0 1
230 1 10.260191741199138 14.580470215899878 1.4444467099257716 -1 -2 0
1682 1 10.090824939492135 18.023286314790568 4.95395787976574 1 -1 0
496 1 11.789830867977573 15.452445486169477 2.3735191320629667 -3 0 1
189 1 11.570653419550693 15.255784745354477 4.57530046046273 0 -2 -2
288 1 12.348774831857884 17.310991478074286 3.8387691973458375 0 -2 0
787 1 13.364235603650178 14.651951055362373 3.6384251322432073 -1 -1 -1
426 1 10.446234578633131 18.247360714488927 2.2587483709560843 1 0 1
904 1 12.625725697638817 17.356338617693808 1.2139678537024925 0 -3 0
408 1 1.756851401762988 22.773308284554098 2.3683961804997598 -1 1 4
1630 1 4.499757673026139 19.30867878765344 3.520811819505099 -1 -1 2
800 1 2.9631290463315105 21.823848077808982 3.9334881009200218 1 1 -1
1917 1 2.650179420769607 20.293787363817543 2.2228021155974593 1 -1 -2
371 1 2.159697387877632 19.894958586930464 4.703700277025938 -1 -2 -3
806 1 13.145940036340857 1.2536504298398863 14.044804154264689 0 0 -1
423 1 4.34846417293159 20.704279712548683 5.147249808562003 1 -1 -2
194 1 4.8462615369257795 19.353766541311614 1.2120621722652067 0 -1 5
409 1 13.800954143297679 14.754486928951724 1.371380759471862 1 0 3
1857 1 5.189760766741558 21.221652750804424 2.607366227160165 -2 -1 2
682 1 5.52802506278251 22.502654001482554 4.408105700452384 2 0 4
545 1 6.519286865616568 19.99386312355766 4.306106524215195 1 -2 1
220 1 8.329995520980178 19.077910418119416 3.281309275506016 1 -1 2
1029 1 7.552157073412732 21.52335526567329 3.5034136223433205 -4 -2 2
1158 1 7.136258450029468 20.166006570126655 1.8180906523227152 0 0 0
255 1 8.991273388345604 20.53788689916022 4.995544875082738 -1 1 -1
878 1 6.668692969790665 22.69549513023251 2.0976281858615717 0 1 0
585 1 5.747529953187823 24.487107105782584 11.962887245992148 -3 0 -1
1809 1 10.019643399201625 24.95503031954067 12.00023613438466 2 -3 0
1463 1 9.470150850699172 21.007598182184346 2.583738210839833 2 1 0
6 1 9.912946520563022 22.38924029781701 4.597509160425303 0 -4 0
2042 1 13.09769626452893 18.95982465666306 2.80486398910422 1 0 2
940 1 11.582541488496277 21.729940316118864 3.071299834801555 1 -3 1
1891 1 10.86929177350356 20.013862273417956 4.227282186798751 -1 0 0
1066 1 13.197218577271096 20.717803776659807 4.5253918183443 -2 0 0
707 1 11.413846267319666 19.902703937069667 1.5271707125788396 -2 3 -3
1957 1 10.242508870524917 6.718824342602404 1.0863384053062752 -1 1 0
1269 1 3.7069841364243223 27.25046703090252 4.387778037902954 0 -1 -5
874 1 4.277794907035743 23.546533576675657 2.761325497074278 0 0 4
159 1 2.1054810796357595 24.429649250859022 3.5048839763608264 2 -3 0
736 1 3.475591027692814 25.974420376802527 2.7440454207234946 0 -2 0
888 1 4.73352438812195 24.823304981493024 4.417196836292998 -1 -1 -1
419 1 12.759322860656589 26.102287198759555 12.762773015277931 -1 -2 -1
1280 1 1.5735218696249635 26.665481185934524 3.7124688896886013 3 -1 3
838 1 5.540363813312939 25.386111678368152 2.08130977561858 1 -2 -1
541 1 3.557902255187644 23.37164955612314 5.324296196429206 3 2 1
1282 1 2.440256170310831 25.60230017378153 5.334542863652048 2 -1 -1
927 1 11.995857720810024 24.491227900759114 10.987174777876453 -2 -2 3
268 1 10.707030252576475 3.885539248395621 1.4575622375563584 -1 -1 -3
1038 1 8.360755937322141 0.9710220359682105 4.111724007878282 -2 1 1
1975 1 7.875393361644493 23.153048461316395 5.157744796917606 1 1 1
1958 1 6.135771217313185 26.612077594213062 3.7748158709082524 -4 1 2
1239 1 8.693763006593365 23.433192085266 2.7147178384134536 3 1 4
1365 1 6.857899542460245 24.41903536438418 3.75809978757995 0 -3 0
1410 1 7.863482979489341 25.667035554414312 2.533644594319485 0 0 -1
1581 1 9.201379502150207 25.04550717303117 4.2630720264565465 -1 4 -1
421 1 7.402305005402867 26.17775279302336 5.571408350224261 -3 -1 4
1268 1 9.497398062741738 26.70866302920058 5.695062180261873 0 1 -1
912 1 13.812550355105754 3.8198915135794977 6.51627892608231 -1 -1 -1
341 1 12.755324321808883 27.158648283776913 3.6906899356231913 1 0 1
383 1 10.040779339268102 26.456445437471636 3.0286614824662728 1 -1 2
1310 1 12.531570558227656 23.155816429619016 4.571079605095523 -2 -2 -1
1112 1 12.926339540855706 23.289331082539668 2.2167651305326252 1 -2 3
1453 1 11.037049600410151 23.98779920084506 3.322480269427633 0 -1 -1
362 1 12.046841394020603 25.58341007442364 1.9304616383174382 -1 0 0
319 1 13.557555516745753 25.234567841400775 3.7375417905245514 2 0 -2
1638 1 11.33362567460923 25.903073605945337 4.627052800777117 1 1 -3
907 1 4.350363288187284 4.695306747775058 5.303752423294098 -1 1 1
1157 1 11.200593444598208 6.1060767148095705 14.15849870069867 -5 1 -2
1406 1 1.107124690136337 22.624185038826525 4.520108182394715 3 0 0
290 1 4.500180901449026 2.5545568397913896 5.476514605533641 -1 0 1
522 1 4.195700159819886 4.238808650197774 7.548852009699176 3 0 2
1446 1 2.993760940141183 2.5655399962288135 8.613140423229297 -1 1 -1
785 1 2.331481899821698 2.9329461288094576 6.726152224178194 4 2 2
1257 1 2.5493807303221376 4.951882518726688 8.633610969515278 1 2 -1
1276 1 4.727598859502324 1.6019704977453109 9.792920767665228 0 -1 -2
351 1 2.655043834534908 5.1721894957382295 6.236733883225555 0 2 2
730 1 4.610795349637991 3.8416677389210285 9.934592554089296 3 1 -2
1075 1 8.737419105398953 2.6395383676710464 5.641524992950135 -2 4 0
282 1 4.640832271679798 2.132764561547166 7.562637649668648 -3 0 1
33 1 6.175718788602047 3.654983422235812 6.489757277776421 1 0 2
1520 1 7.972454152596224 4.673543168222386 7.30936059825119 3 1 -2
512 1 6.57453795204723 3.152463694802022 8.659396708569084 4 0 -2
1309 1 8.320556392274746 2.282086420656814 7.759894515061797 -1 1 0
622 1 8.898446188940973 3.5857401451509032 9.384740263825641 -3 1 1
1823 1 6.018859437584344 5.3413631110274435 8.414656286302709 1 1 1
796 1 6.225845421229574 5.797178823042849 6.17596617633415 1 2 1
930 1 13.513722819639664 23.372625852719132 12.30183664506284 1 -1 -1
476 1 9.876506779345144 4.1756229684253725 6.887471453892802 -1 4 -2
547 1 9.701063926133784 1.094161306210717 9.279582779013817 0 -4 1
1149 1 11.60825184203417 3.2786115081364113 6.026891189828592 -1 1 -1
1421 1 13.417391502109076 3.907887291881847 8.97517820885182 -2 -1 0
167 1 11.118909649558997 3.1390077990285117 8.49291832758789 3 1 0
299 1 12.78621467590013 2.12505106234014 7.610233426126753 -3 1 2
1192 1 12.115490670193063 5.1698652299684795 7.12007711731758 0 2 -2
1810 1 10.529062636892538 1.7275526263026553 7.180832148714016 -1 1 3
1260 1 10.315578901828877 5.452181114772825 8.495160173015194 0 0 -1
1582 1 1.4524062940716254 7.7065382027471605 5.626928421282917 1 -1 0
1405 1 4.285551836771974 6.43873323888598 6.970405929693556 2 1 0
791 1 2.4042845686208 7.2900545715212965 7.646576049503254 1 0 0
1248 1 3.6897972221210456 8.837008544750859 6.642380993040464 2 3 -1
1024 1 3.0094975216146085 8.898391418790142 9.025943786779946 2 -4 -1
979 1 1.5929575249490857 9.512546747643425 7.366812839964359 1 0 1
1250 1 4.106393469497216 6.619431426881956 9.239883611478717 2 -1 2
713 1 4.960116327420696 8.147226360319905 8.19796305296247 -1 -1 0
1919 1 5.4222925166171985 8.014902075515636 5.923915498239254 1 0 -1
703 1 8.260864341989056 5.9569382563025455 9.040345450670571 -1 -2 2
1982 1 6.932330748163041 7.227395312982934 7.478483946086915 1 0 3
452 1 7.1434552136247085 8.861953351824024 8.630989654574613 -1 0 0
137 1 8.036901361171783 8.694230864464625 6.442291357818269 2 -1 -2
438 1 8.97834114675699 6.4808918698027025 6.589052246475759 -1 0 3
726 1 9.395652784571 7.779570486998815 8.365917667729164 1 -1 -1
185 1 5.972905190592313 9.984494811572619 7.0949215035076065 2 3 -1
368 1 9.457363300014006 9.745303752943565 9.765301398995321 -1 1 -1
92 1 9.848195958885565 8.007655615479635 5.5559370223320625 1 -1 -2
923 1 12.577859540479398 6.321032560731776 9.054397129988882 -1 0 -2
1632 1 12.324527733142103 8.671429097282864 6.0464703801751165 -1 2 0
1757 1 13.360610317833235 6.105185686364251 5.739494684712557 -1 -1 1
1071 1 11.304170474657717 7.205515354158992 7.148501647224358 3 -2 0
1129 1 11.529349356989178 8.686738276320215 9.091524301335602 4 1 0
513 1 13.283682766223663 7.946083704098725 7.986983060022128 3 -2 -1
312 1 10.340837311928093 9.556168467425028 7.117966716808112 2 1 0
945 1 8.38860158923477 3.1407769431056574 1.1447816091824436 2 2 0
929 1 3.8915775597551105 12.585075852955374 4.805662988493306 2 -2 -1
1498 1 4.807533662612645 10.362919943279998 5.147335323863779 3 3 0
509 1 4.126501140255755 10.634511350091584 7.818683690793442 -2 -2 -4
950 1 2.7860653957636723 10.924562508499163 6.266602785888299 -2 1 0
1074 1 3.1029736189997443 12.766691092287308 7.996539725063469 -1 1 0
1381 1 2.0013077137921993 13.393019734272857 6.019925412196487 2 -2 2
2045 1 2.0957898780700646 11.244916997717468 8.953958149962316 1 0 -1
1910 1 1.0813143020723543 13.165814276816885 9.017603633732682 0 0 1
1308 1 5.014862829684666 12.23321960257896 6.662246524978407 2 1 0
877 1 4.444795776691712 12.069361727752048 9.635777508631367 1 -2 1
1275 1 9.160705122619634 10.379483943951733 5.3182937664541905 1 0 0
1449 1 5.72415812146871 13.516070348797776 8.472521792902327 3 1 1
401 1 6.526468397466111 13.464303944192874 5.755985598167187 1 -1 -3
1783 1 8.3499290724399 10.382835043156799 7.8587032797243985 1 3 -1
795 1 7.225142047240639 11.167348339305 5.945074468671856 2 0 1
853 1 7.558001524759623 12.533888862090787 7.648792665455845 -1 -1 0
499 1 6.274522550617637 11.334989194873515 8.822378764531809 -1 1 -2
1836 1 8.692843367891573 11.97631703945027 9.403904131845305 0 2 -1
1027 1 9.565976084358677 12.095323312209684 6.875674227271584 -2 0 4
431 1 9.94018973238084 13.566689302012291 8.235063298519417 3 -2 0
40 1 6.347710569882231 26.520859158361255 13.595401218527476 1 -2 -3
393 1 13.953939404873566 12.14810384409336 6.488091518722608 1 0 1
1500 1 10.768018585253852 13.672636239047172 5.528133636966875 -1 6 3
1780 1 11.416614714971644 11.251999068021519 5.885266559817623 -1 -1 1
1264 1 12.831371763052294 10.376107701422237 7.367104168029818 -2 1 0
671 1 11.94722017545131 12.638271041119527 7.482017475489574 3 3 1
1746 1 10.995783128781387 11.098196210437758 8.707675346961853 3 -1 0
751 1 12.995340291885181 11.939187993758104 9.301880198193505 2 -2 -1
24 1 4.402937153465068 14.372225713450405 7.017023183629774 1 -3 -3
428 1 2.5029172675275175 14.87644985753308 8.015902797764028 -1 1 0
1898 1 3.6831255110644867 16.454216913223085 6.345284580202838 1 -2 -1
1724 1 1.9943566264020296 17.413928033828967 7.1916945349701615 2 -1 0
820 1 3.038786879053344 16.72394186080317 9.254083611051962 2 -1 2
1744 1 4.96471299722064 15.817747827375081 8.673311418481228 0 3 -2
466 1 3.9937662381366605 18.234958412675077 7.929327774322638 -4 1 0
1688 1 1.385151263587769 15.357228666557418 5.972617288957653 0 2 1
356 1 5.747034469542961 15.618516976526859 5.640929652522801 0 -2 0
1051 1 7.962248260783398 14.430346628699194 9.323872563755346 2 1 -1
1 1 8.638199015815466 14.210071470257148 6.674066173929436 -1 -3 1
225 1 5.949083902315258 17.42781074348663 7.185674567163368 3 0 2
1506 1 6.891473406749691 15.119474932570352 7.3831215973327735 -2 1 1
916 1 7.888041084347102 16.579199575101164 6.339500481439079 0 0 -1
721 1 6.8790329960029775 16.742337697966676 9.13109744778527 -2 1 0
1974 1 9.079507667949052 15.997562608067675 7.8874034107690605 -3 1 2
1011 1 8.097113332039783 18.462337973382112 7.867687024309369 -2 -3 2
179 1 13.701694732707836 16.284169012434994 5.220794646264249 0 1 2
1824 1 13.827084703054425 17.83553420267029 6.8717558743352685 3 0 1
573 1 9.959851527244492 17.698796854809004 7.347424661672795 2 -2 -1
520 1 11.79146486817296 14.685154916811669 9.169478569721013 2 0 1
1196 1 12.791690888045846 14.457218212433434 6.332693173746253 2 -1 1
1714 1 12.840841265937916 15.9880514802796 7.842944973800299 2 0 -3
293 1 11.02680895427512 15.008125788598974 7.211357634999415 0 -1 1
1713 1 11.154814424397536 16.961705294361465 9.0215776736122 3 -2 0
1468 1 11.736431614718478 16.87143357923592 6.264346551265326 2 0 2
30 1 13.482110473611273 17.927036461866756 9.510541150938893 -3 -2 1
589 1 13.243324930645064 25.996093765587382 10.070776407331664 1 1 2
107 1 3.811350228233429 18.557319448299367 5.603363844748859 2 3 1
2020 1 2.2891812747638727 18.959495521381633 8.836887557977 -1 -1 -1
770 1 3.644638941604889 20.277101641164357 7.613346741979628 -3 -2 0
339 1 2.170162532487219 21.6760448770765 6.466470902098949 2 1 -2
894 1 1.4724707000541417 21.095976441506785 8.940232189887542 1 -1 0
337 1 4.761026827077694 22.054694982117432 6.73863116078363 1 -1 3
1483 1 4.474242358227844 21.809333705849376 9.152382782917801 0 0 -1
269 1 1.6891127002508837 19.58567722597971 6.883745450604152 1 0 0
729 1 7.962300297921228 18.801395282108516 5.640416233541861 1 0 1
532 1 5.730063049050873 19.441461791364524 6.57554288321439 -1 2 0
1087 1 6.117225704581702 21.00166206304265 8.104278254747687 3 0 -1
1934 1 6.246561500891998 19.034978302727843 8.855925371537207 0 -3 1
412 1 6.90804133325516 21.435851618032302 5.929065128050573 -1 -3 2
259 1 7.9878168565757175 20.39198817691448 7.409373259092854 -1 1 -1
557 1 8.65316332867835 22.09040801555794 8.848410635861773 -1 0 -2
964 1 9.172598014500855 22.35989552950212 6.645266329539922 1 2 2
702 1 8.381781124341792 19.97740311296584 9.508114499400477 1 3 1
1827 1 6.405764290536802 22.81172784762517 10.026797868181738 0 0 0
865 1 11.394857366314431 21.401464193604006 5.895712887198082 -1 -1 -1
199 1 12.367406919229007 18.96635758140939 5.415859210988824 2 1 3
1634 1 12.086274199429603 18.65099366483829 7.857390604089701 -2 0 3
462 1 10.373209143670868 19.564443824615253 6.453563554489553 -1 0 -2
485 1 13.70248557373919 21.93810501489211 8.418131151361552 3 2 0
1979 1 10.762086560413678 21.768477956556026 8.029652005130218 0 -2 3
1161 1 10.182416661640787 19.764550599561154 8.436530752928865 1 1 -1
746 1 13.04446021692387 20.626562494745514 6.940016561330243 3 -2 0
405 1 12.577018823122213 20.504265576308 9.389180668337408 0 -1 -1
686 1 13.96771921667895 15.15094904905983 9.566158237907189 0 -2 3
365 1 3.071256595186705 27.362103336579572 6.48839066378634 2 -2 3
1124 1 2.647993441009926 22.945056060894345 8.122549046891239 0 3 -2
307 1 2.426821472247587 27.08625330956869 9.394510838157526 1 2 -1
1671 1 5.000938392817731 26.596384332147032 6.020918313944179 0 -3 -3
437 1 3.8375632865126375 24.96865775057018 6.669104015845605 -2 -4 -1
1766 1 4.1917916284381835 26.29126558238707 8.237502491044335 0 4 -1
77 1 1.836828206615208 25.72101144706705 7.907124447698632 1 0 0
922 1 3.2037854734531477 25.01342215488875 9.50138964118272 1 -3 0
94 1 1.4879743844265674 23.769348639374194 6.4177025561612835 -1 1 -1
995 1 4.878946436109567 23.812926936102222 8.304941933509562 1 1 1
492 1 6.570007613394495 1.4819635663732815 6.6669110632935356 -2 2 -3
1576 1 6.912476037805226 22.869657296054733 7.564544315694421 1 1 1
2036 1 5.971466520520274 24.11111610573535 5.968316333228684 0 3 0
1320 1 6.428494340496064 27.120489922995638 8.879271919084015 -2 0 -1
309 1 6.343551560933103 25.38277471605361 7.491543568348353 -3 -2 0
1385 1 8.272348343510643 26.618538625694775 7.787409612047136 1 -2 2
1718 1 8.552546855494498 24.57311090525372 6.619671037365449 -1 2 2
1613 1 8.273188668411626 24.603357861991192 8.843005499378101 3 2 -1
267 1 11.767409352717614 22.85469529504514 9.56442020520838 -2 -1 1
171 1 12.371331712402787 23.05203175998244 7.020481891707173 -1 -2 0
675 1 10.169764434941508 23.966734271756373 8.165377674603654 0 1 0
120 1 12.196510387420503 27.279177275980174 6.070991635167385 1 0 0
1294 1 13.693753576100656 26.40982617393321 7.699563300475592 -2 0 0
369 1 10.852336283063613 23.932548971416296 5.894175757837017 1 -1 1
1386 1 12.780096424110583 25.22410477045314 6.04591439219936 -1 0 -2
1200 1 10.58097992053164 25.881432903774105 7.5302101042379475 0 -1 -1
1209 1 12.505888023618542 24.79047128795773 8.408568374720808 -3 -1 2
1183 1 11.852938630531616 27.147720154496625 8.845129361082096 1 1 1
1798 1 10.358443639837454 25.4432043394797 9.751768833538092 -2 0 1
1590 1 3.0838882355873523 4.609405598983086 10.704592253011361 1 2 -2
652 1 4.736771658076103 3.6936633788023774 12.144812745015901 1 1 -2
659 1 2.4309872493309674 4.371628236867035 12.925117325465877 3 2 5
656 1 2.666901427697763 2.6351825788535406 10.751000928936463 1 -2 4
1285 1 4.404003345815193 1.53084709743586 12.170302040533393 -3 1 0
1510 1 2.4431631767667352 2.1618845847067885 13.164156964899403 -2 0 0
1495 1 5.444201279537797 5.647445623057667 11.114639076217804 3 -2 -1
1234 1 7.7972267276553735 1.8350338426824058 10.012585292059349 5 0 -1
600 1 7.178648649394643 4.666708765924268 10.340375770726327 0 -3 -1
1344 1 6.241726465572673 2.47522203833002 13.549631881919282 3 0 -1
1165 1 6.232528583615599 2.617084103148595 11.008324527857582 1 -1 -1
166 1 6.697898951457038 4.414451131017236 12.632704111602637 1 0 1
1881 1 8.436732016952604 3.694610155936647 11.82189769734626 -1 2 -3
792 1 7.842943491786072 1.6817983733789763 12.282195921908375 1 -2 4
330 1 9.373360788426508 27.175611862934538 11.448496671968941 1 -1 -1
1792 1 8.795817096416002 5.564830484240931 13.408558769185792 1 2 4
404 1 10.604567619917495 26.670522337771644 13.260887736047112 -1 -1 2
614 1 11.401489921342039 4.476443984264991 10.100028003204573 -2 1 -2
223 1 12.480467506022615 2.3872396669060003 10.07106115053984 -1 -3 -3
855 1 13.651931986765744 1.4627592304205317 11.574445457461332 -2 1 2
1705 1 9.578726610567902 2.2644498343505624 13.400930992172755 -1 4 0
1229 1 10.33286877346844 2.5115511190954916 10.906711890275949 -1 2 -3
1055 1 12.785325935641858 3.79843351267201 11.708998343036246 3 1 0
1060 1 11.649412932719603 1.899833429679233 12.480316700205382 2 0 -2
2040 1 10.409006259731639 4.354035127831234 12.608273353799815 -2 2 1
1226 1 12.012438636500718 3.8203265018457393 13.84708965915459 2 2 -1
1560 1 4.8672289870091525 5.071225475885327 13.652374900117364 0 2 1
275 1 1.2753690837642002 6.956184468391673 12.815700208770663 4 2 -1
1787 1 2.217628811268825 6.947323447226976 10.133713816089804 -1 0 2
553 1 3.57300158138207 7.82560430768088 13.781351592947983 0 -2 0
766 1 3.3058789543203395 6.403381623383798 12.031179831114729 0 -3 1
952 1 4.572289621853239 7.769571877460778 10.738345631483849 1 3 2
693 1 2.5930584865495874 8.46620772156594 11.62757351771191 0 -1 -1
1962 1 4.660318372819987 9.513807218557629 12.150716359537945 1 1 2
1366 1 5.567135531932053 6.9591860334349445 12.700519455198773 -1 0 -3
1111 1 1.2754859524036746 9.317144423152751 10.143955502831176 0 -2 0
1607 1 4.942233251664778 9.637758083421863 9.6522146159679 0 2 -1
1737 1 6.533675235686276 6.962641786380246 9.644952104868482 4 5 -2
1927 1 9.509850392984072 5.340417477627215 10.95555116504587 -5 -1 -4
1696 1 7.46579499489103 6.168975409223129 11.932353748399866 -1 -2 -1
207 1 6.7162070462363 8.437961816383375 11.325056400120907 0 -2 -1
1915 1 8.474443034213664 7.875233726012211 10.45530875027023 0 1 2
595 1 7.925972979327533 8.013037955207569 13.20869887139404 1 0 -1
984 1 8.742311339603534 9.42225803710969 11.909791421531956 -1 2 -3
78 1 9.863103359846546 6.991035585977045 12.314589080836663 -1 1 -2
1926 1 13.771565012274893 5.502555390195686 10.441609681268158 0 1 -1
653 1 11.608248430791413 23.983471895042193 13.486962792043446 -2 -1 -2
1022 1 10.737016648715077 6.978183403024214 10.080001861676472 -1 2 3
765 1 13.80303419413449 5.233014833818807 12.963100569281925 -1 0 -5
1653 1 10.676035387757283 8.782280345291298 11.370408259572585 1 0 -3
963 1 12.92254582319173 7.901114316529441 10.707009823659092 -1 3 1
340 1 11.924013055314695 5.894818795602667 12.073915288460455 1 -1 3
1064 1 12.08788541974551 7.801965028134315 12.859047581985388 0 2 -1
1354 1 13.335322419898086 9.429512137002726 12.102333257561796 1 -1 -1
1278 1 10.665995438209599 22.951516236799556 1.5057923780167575 3 -2 -1
1894 1 2.8649624931073445 10.099796761065448 13.343270778684603 2 -1 1
1650 1 3.474505982062519 10.354172021209251 10.711407563377145 -1 -1 2
1631 1 2.0793662525600345 12.600432239398682 13.350617961046824 2 -2 -1
135 1 3.763368381548002 11.829021695968956 12.580817375848623 0 -1 -2
842 1 1.5896997962629293 11.049042314609935 11.768803362813962 1 1 4
2009 1 2.5393931497245363 12.642327371988378 10.387742365190512 -2 -1 4
901 1 5.112305054990071 13.3088311369189 11.472201325589733 -3 -1 -1
118 1 3.1823695371648513 14.078282613888506 12.020342195788992 -1 0 3
458 1 3.2914947160529406 15.565561386980061 13.786543597498508 1 -1 0
1167 1 2.093279260327147 26.54377336787028 1.0702886179248279 -2 2 -1
245 1 8.20720952081953 13.397175209804589 13.823643285554503 0 3 1
1677 1 6.96961005142059 10.071312829265858 12.64299294561845 1 2 1
217 1 5.682148424382371 11.111658957244527 11.443733771687391 -1 -1 -2
797 1 7.007375926569399 12.74844599110531 10.31880861607639 3 1 1
264 1 6.140181602710289 12.608177567496428 13.312942580934928 1 0 2
1479 1 7.462518201001878 10.366218716649152 10.263526032403854 1 -2 -4
422 1 8.017133184894528 11.95438537422466 12.233806642661792 -1 2 2
634 1 9.188095788393024 13.418713055922176 11.139298532288741 -1 1 1
2010 1 7.921671515196013 25.79252898351639 12.347276365797818 -1 4 -1
790 1 11.00706631685339 12.831180182952089 10.125118940457746 1 -1 -1
1434 1 10.261610256377805 11.063899033960102 11.346246939547623 -2 -1 0
856 1 11.325980716590959 10.660367653932713 13.182425790667223 1 2 0
1466 1 13.574260246358907 11.170057705129377 13.764254909937245 0 1 2
1301 1 10.434823674966179 12.826751110599997 12.931538676934224 -2 0 0
867 1 12.178280073414426 10.392522619043408 10.517973119336714 -3 -1 0
937 1 12.452813338791296 12.071454829006127 12.033408848772018 2 -4 3
1262 1 12.696531513265437 13.77532519711921 13.397253503453586 0 1 -1
467 1 13.020756422929969 13.623630524761994 10.771900464371171 1 2 0
1379 1 3.906057117417814 14.145280096422573 9.684554527013383 -2 0 3
481 1 13.798657945851756 20.987190731616998 1.9994581274568066 -3 0 1
1614 1 11.457342530083736 26.805465166191944 11.061249346873339 2 -4 1
1932 1 2.970728737210552 24.18997451611201 1.1097055099483533 2 -4 1
1539 1 5.024043156185581 17.368090716351745 10.084342010632067 1 0 3
1467 1 2.483626377381934 17.848772393366914 13.905706283585957 2 1 2
495 1 2.0319646052112663 14.962054184444277 10.296371441813967 1 1 -1
1108 1 4.385795745055501 15.806098492557153 11.275313859052519 -2 -1 0