LAMMPS data file via write_data, version 29 Oct 2020, timestep = 300000

2048 atoms
1 atom types

0.9137097293794749 27.43829027061637 xlo xhi
0.9137097293794749 27.43829027061637 ylo yhi
0.9137097293794749 27.43829027061637 zlo zhi

Masses

1 58.933

Atoms # atomic

1052 1 3.4207919029617333 3.224168801445339 3.896600925566216 -3 0 0
1230 1 2.792954738491578 1.806369606743783 2.163912556514133 0 1 3
1963 1 4.220994565313063 4.8319564665881085 2.6979391287967776 -2 -1 2
826 1 2.0932260542226095 4.265215506096897 1.9083196980009722 2 1 1
785 1 2.189295002168756 1.7425074000489387 4.864971328183582 4 2 2
1455 1 12.85929592920306 19.53651887049903 13.941982359114478 2 1 1
387 1 5.1615829757400915 2.4881443827950473 2.5952611893481383 -1 1 0
836 1 13.961756605318769 19.97306979121727 6.764339120913307 1 1 2
1611 1 5.866080753838272 3.8657528850616694 4.21469629597706 3 -2 -1
97 1 6.193316660533824 4.522112138230866 1.7144586565403042 -2 0 -1
363 1 7.753383868447821 3.5052611828243667 3.2639879798573013 -4 1 -1
2041 1 6.930525059646908 1.5744943021289335 1.6646513886656666 1 0 1
1202 1 6.568839577022184 1.599913923649849 4.240335769292927 2 2 -3
1190 1 9.49205110415854 2.416314803457145 2.404715611530428 1 -1 -1
1075 1 8.505073775292557 2.562068071401442 5.421757578984417 -2 4 0
1566 1 9.675344911914644 4.184278320848902 3.546835704209999 3 1 2
979 1 1.377857119035307 9.570703228818164 7.457580250095508 1 0 1
1038 1 8.382083299839632 27.227030042356475 3.249066108833505 -2 0 1
1577 1 10.539800312341404 2.0122468701296032 4.365393211623182 0 2 1
1404 1 11.58134539576474 3.570794318117524 2.9125554531150177 -3 1 -2
517 1 12.902809692332944 2.446295301472161 4.878462082197991 1 -4 0
744 1 11.464732607041421 1.7687104576507007 1.444884072870483 1 0 0
880 1 13.471587622363758 2.5706937712223477 2.2420158577511806 1 0 2
400 1 12.197837217886876 5.014211954118651 4.4209360431443585 -4 -2 0
268 1 10.307338474897552 4.381180058201288 1.3565654349874925 -1 -1 -3
297 1 12.819137398716636 5.068566645875718 1.9636036060823732 -1 2 -2
1763 1 1.3855775535569772 24.449627028742277 3.746433842050193 -1 1 1
1150 1 2.4891437803371863 5.788984541365812 3.387329797711059 -1 1 -1
125 1 1.6898598727909975 7.885364831412511 3.205128153197914 1 1 0
128 1 3.825866712964366 7.46123990346735 2.565610369490088 1 2 -1
59 1 3.9719722461470495 8.938236571023209 4.365588891686913 3 0 2
417 1 4.492516879299994 6.571073545420773 4.419762007108062 -2 2 0
468 1 5.029914893806589 9.36818136909784 1.5596505778439442 -3 0 2
1378 1 5.335332405839511 6.69236808829395 1.6329693595604922 2 2 -1
1646 1 1.8912168762976778 9.528251147520812 4.518823329413721 1 1 -2
1807 1 2.773109294985576 7.168325227114807 5.214441402383583 -1 -2 -2
371 1 1.0365097595321364 20.190460176754137 5.161056291233818 -1 -2 -3
918 1 8.133829300628273 5.352713890899026 2.3831505476540675 0 -1 2
224 1 7.9088454496425395 5.061031863826205 4.876926700966155 -1 -1 5
684 1 6.386906055291171 5.887420671744325 3.5557479619343604 3 1 -1
1946 1 6.057085069669114 8.332524625957628 3.1383023831857697 -2 -4 1
1706 1 7.492612848573033 7.565328287265031 2.1905333026721157 0 3 1
222 1 8.176976661760104 9.296531436385312 3.808811785157819 3 -2 0
1658 1 8.97917057830626 6.684019852855358 3.957506031349062 1 1 4
1855 1 6.978340011829507 7.595967832551369 4.958491799743807 1 -1 2
1055 1 13.873434408087826 3.575306948936421 10.862273075888425 3 1 0
1957 1 9.316546217588641 6.895592773917309 1.017721912234379 -1 1 0
842 1 1.1879989432227713 10.988865649762634 11.847628906783354 1 1 4
403 1 10.227118349308832 8.283063894333266 2.820092183715237 -2 2 -1
429 1 10.860046515372069 6.103027989638071 2.658294731190743 2 0 2
1289 1 11.388564607105357 7.430784000739955 4.460477795946469 -1 3 -1
633 1 12.046970489447014 7.8794667390694135 1.8421074371909887 0 0 -2
1188 1 12.636081780182677 9.166400892856347 3.419445088828237 1 2 0
407 1 13.044822386352342 6.997582908378087 3.466353836230312 1 0 -1
666 1 13.310135424735082 8.358157277004064 5.293258596922762 -2 1 -1
1552 1 9.034838180985195 9.257695106385732 1.1109503428797118 0 0 1
1034 1 2.928232019604516 9.723286327283267 2.3251259916065017 1 -3 1
839 1 3.284332205756183 11.285443420836339 3.8216578152934715 2 0 -2
890 1 1.9822443795183358 12.162760909194313 2.168294851080873 -2 0 2
909 1 4.114253081181267 13.262207374058843 3.108707391906884 1 -2 -2
2017 1 2.2017707128793917 13.462312945744925 4.156834196864947 0 1 2
2018 1 5.49992562448814 10.740798821231795 2.86767132460301 -5 0 1
508 1 3.0809833009396805 14.095501222483447 1.1175473040161499 1 -2 0
260 1 4.134685943775516 11.781023772072645 1.5213202379322484 -1 -1 1
1082 1 5.55683580964129 12.23593085511763 4.583591463232098 -1 -2 1
415 1 7.164536337137576 10.131368325854114 1.6698590683245353 2 0 1
1358 1 6.203260042424543 9.970830038458553 4.663376254920427 3 1 0
1388 1 7.534760778694488 11.637847272005057 3.645111179071202 0 -1 4
910 1 6.386072638187093 12.485225359087332 1.8994644033779566 2 -1 3
1585 1 8.647577403381947 13.278425902525264 2.3726062400360126 1 -1 1
1906 1 9.559561875913001 11.024758091392785 2.557575063876107 1 -2 0
152 1 6.902337194289172 14.234639534886963 3.33049373379734 -2 -2 -2
1726 1 7.508446015142275 13.099976695793575 5.3488490723396644 1 0 2
893 1 9.459756203353152 12.34695394174979 4.386184740514947 2 1 -2
335 1 0.9744366587703422 3.0247136420337006 11.903097278140653 0 -3 -3
969 1 13.070017208842652 11.068930253657062 2.4627785968020457 2 2 -2
1014 1 10.649710818090822 9.771087405543003 4.427900454369273 0 -1 1
1403 1 11.328098160530752 9.875385128310157 1.708660703236541 2 2 2
579 1 11.520852794638722 11.921551204379922 3.9608500399204853 -2 2 -1
1965 1 13.087373359933524 13.204690251018471 2.3783365678156585 -3 1 0
899 1 11.077240554621794 12.36942149240789 1.55434402847521 1 1 1
1270 1 12.909429519184354 13.07372009627795 5.213503973590462 1 0 3
1928 1 12.794493060105633 10.754097877607482 5.1615575059362415 0 1 -1
1003 1 11.018257358209404 13.844540040055563 3.1059500816474244 -3 -2 2
889 1 4.722582061858353 14.798346950877072 4.296783055187132 2 -1 2
42 1 1.1652379528875898 16.532053754168565 3.745469476299099 -1 0 -2
1760 1 3.0236986004575237 15.252595252363125 2.8255756310064966 5 -2 -1
1347 1 2.3106773295345997 18.07040097572866 2.831361508048842 1 -1 0
253 1 4.015979630658768 17.20203752881259 4.265268175392219 3 0 3
1061 1 4.381302445484754 16.947611233522537 1.9898909622551104 5 3 1
1490 1 1.7541453959327256 16.67312525672895 1.3608627718699844 1 0 0
1765 1 2.6001183173664764 15.50171870420282 5.247745224595263 1 -2 2
897 1 2.053899698502355 17.937993784379167 5.232414032036264 -1 -2 2
336 1 8.864545051016062 14.5822239766793 3.9478297754809226 1 -3 3
1399 1 5.35234294752046 14.483135389101594 1.9362037295995784 0 1 -1
242 1 9.354139184716534 16.891377645804297 1.318840389356918 0 -1 2
1176 1 7.874930593740173 16.032296982477238 2.567657805890226 -2 -2 2
574 1 5.879253756719044 16.46597014284169 3.4334275058090604 0 0 3
965 1 8.516659825036363 17.384180438472534 4.044521052345576 2 -1 1
1435 1 7.187495884232311 17.874423400925515 2.2874416873335117 0 0 -1
1901 1 7.1762770750810825 15.503340809313173 5.149234083834745 -1 1 0
477 1 6.793036443629161 18.260179424649046 4.9259200515207775 1 1 4
121 1 13.773962703502816 3.8567196455069004 3.7222058683429258 2 0 -2
496 1 10.593091051369758 16.429177364823992 3.1961131308726873 -3 0 1
1682 1 10.874860310249574 18.081181157559463 4.874310619412473 1 -1 0
409 1 12.488068448049134 15.414059694493583 2.1449343390132745 1 0 3
189 1 12.102203539533766 15.2851504096916 4.421459667393862 0 -2 -2
288 1 12.697256519801229 17.32842329050615 3.867465584421675 0 -2 0
426 1 11.804489828845131 17.55272685218494 2.0142252659868296 1 0 1
1113 1 3.4546121818067226 13.860031873022429 14.113868445885196 -3 2 -2
1139 1 9.817637005760497 15.990935003387436 5.195132955747025 0 4 0
878 1 7.578698079993851 21.98338877427632 1.113406439529144 0 1 0
589 1 12.358843118159594 26.51618480010061 10.283600574569126 1 1 2
2042 1 14.05746433066884 18.681750212273165 2.428688652428052 1 0 2
521 1 5.104766295277938 18.62899414333466 3.1747689753547235 5 -1 2
1917 1 1.5000449974037338 20.30774300098787 2.7769110200283587 1 -1 -2
1406 1 2.152454064713188 21.94568252213228 4.293768201211337 3 0 0
408 1 3.1943595385076677 22.3053571304928 1.3857287140991366 -1 1 4
1630 1 3.1895862238276274 19.632545921536973 4.198834957191741 -1 -1 2
800 1 4.025630247859723 21.40142681509777 3.348810866250247 1 1 -1
194 1 3.479230798160775 19.77044320895567 1.9471450395300691 0 -1 5
874 1 5.689672587343597 22.697082776003995 2.1638852522605365 0 0 4
314 1 8.658242916874269 27.42030832666687 0.9681419390985384 4 1 -1
541 1 4.246294205995657 22.990806920000296 5.288739854433284 3 2 1
423 1 5.461310888753071 20.412724616952694 4.5136757538626995 1 -1 -2
754 1 3.7619335370495537 5.377972082708922 14.008224999477449 -1 -1 -1
220 1 9.765497566170986 18.71710661234765 3.029127995269638 1 -1 2
1857 1 6.364924748790189 20.338891332288995 2.3945581680968204 -2 -1 2
682 1 6.202816605763217 22.461463883963482 4.126046144273767 2 0 4
545 1 7.754874607781162 19.522458235003477 3.8227957998693562 1 -2 1
1029 1 8.6818517597501 21.14162250082741 2.973041100806446 -4 -2 2
1485 1 13.699858363866017 26.877936990497844 5.307408219886358 -1 2 -2
1239 1 10.408297154898777 22.908946375813365 1.7182625602084065 3 1 4
412 1 8.299671961696706 21.295144308320573 5.1435881123600025 -1 -3 2
199 1 12.373627427941893 19.03113086879531 5.664831614495961 2 1 3
1667 1 13.507983937284955 21.029725252383784 2.240340500979534 -1 -2 1
255 1 10.200013774552556 20.338139137329577 4.51524220703774 -1 1 -1
940 1 10.013508984418309 22.760138169555788 3.971702545087035 1 -3 1
1463 1 10.723886338427317 20.736572704803436 2.0610996224871583 2 1 0
1891 1 12.08206308731267 19.302913548861262 3.3362998902261616 -1 0 0
481 1 11.906776794325921 21.854115327884223 3.4885859529847036 -3 0 1
964 1 12.240190730022627 21.344385791733863 5.579283655678646 1 2 2
350 1 14.05076607734836 22.921796563195272 4.0786668149694085 -2 0 2
865 1 14.12793215294015 20.542170311420875 4.33406425336914 -1 -1 -1
1431 1 4.772731528172251 27.27295918447828 1.015254085667061 0 0 0
1269 1 4.025889090895445 0.9584827300889245 3.8166120342222487 0 0 -5
1164 1 1.9192543470666485 24.498946427535763 1.4874948464878566 4 0 2
1280 1 2.036007587521895 26.571971478637998 3.1528103385481434 3 -1 3
159 1 3.152073650670267 23.421654024198418 3.2717351674778383 2 -3 0
736 1 3.8997325915068823 25.621057899735895 2.455606323334653 0 -2 0
1282 1 3.6960726815588054 25.341883982519725 4.877465117521162 2 -1 -1
949 1 8.224108889828784 11.170223331234387 14.099574817524102 2 -1 -1
888 1 5.223663980626486 24.762684967682155 3.56528653573106 -1 -1 -1
6 1 8.137906662363932 23.3987488521635 5.18551412720361 0 -4 0
838 1 6.0470715205081165 24.667133087667708 1.3288696495261818 1 -2 -1
1958 1 5.861802233535676 26.572278135366176 2.7205141982727783 -4 1 2
1365 1 7.852706498606189 23.34629716020457 2.90231422774408 0 -3 0
1410 1 7.7995998355576015 25.5203260673622 2.0605758017598985 0 0 -1
421 1 7.171263125936542 25.561314523514092 4.436904096244772 -3 -1 4
1581 1 9.138174293689138 24.879138572345518 3.8383878835246144 -1 4 -1
1268 1 9.661119054086484 26.53899915030125 5.372361723933105 0 1 -1
1171 1 9.842199149455856 25.200408447192004 1.7259264283563758 1 -3 2
341 1 12.307216686851614 1.2564058752740004 3.4933324215069814 1 1 1
1112 1 12.822234367983837 23.571724003770292 1.8163884279713738 1 -2 3
1310 1 12.169753915645773 23.69746962504336 4.8674056086015 -2 -2 -1
362 1 12.008235772718498 25.9516435149446 1.7559424939536596 -1 0 0
383 1 10.504948692823078 26.776538042176647 3.101118592038539 1 -1 2
1453 1 11.154392166025405 24.508089876447983 3.2250289117020703 0 -1 -1
1638 1 11.591892247143946 25.913907265247623 4.67550796085332 1 1 -3
319 1 13.442667960570164 25.233947538452966 3.4023612789543605 2 0 -2
230 1 10.008352799167522 14.692802783925647 1.3543643989654244 -1 -2 0
290 1 4.709096587312965 2.209279304552825 5.437195059379723 -1 0 1
1446 1 2.410904822689222 2.9930620360291544 6.45181761400074 -1 1 -1
859 1 3.6981809356032356 2.173374242872602 7.798717060029316 -1 2 4
86 1 2.7258989342235598 4.7937956266560064 7.841035764834781 1 2 -1
656 1 2.0814457313013897 2.6294360120127753 9.186041276467222 1 -2 4
522 1 4.935092201333734 3.9244886446880156 7.114591576817913 3 0 2
723 1 1.6225055805643627 0.9455506525181729 7.451358237486956 1 3 1
730 1 4.092876229849493 3.850245451400941 9.593979291175021 3 1 -2
1520 1 7.15166880052844 5.022779049963258 7.455119252863509 3 1 -2
512 1 5.962834972686228 3.296989659785621 8.74318551897327 4 0 -2
33 1 6.741033494850698 3.217402017518804 6.004082254215627 1 0 2
1309 1 8.21251926138726 2.5799296305463857 7.668204794116537 -1 1 0
282 1 5.979945602386313 1.621210226266599 7.194508735617563 -3 0 1
476 1 9.067411552609656 4.398692393359532 6.709460909840898 -1 4 -2
622 1 7.83731446596876 4.12116892127097 9.127922477323338 -3 1 1
223 1 9.151180621279247 1.4029990172632307 9.823886023517083 -1 -3 -3
492 1 7.650036112719867 27.213776807799412 6.139583043862847 -2 1 -3
1149 1 11.05128977304475 3.657799615478673 5.856315315444941 -1 1 -1
1810 1 9.80818471015764 1.5452021358803123 6.829909583181635 -1 1 3
1192 1 10.025559294714256 3.1561157634643546 8.603633579828049 0 2 -2
912 1 13.19273240890982 3.971542307455762 6.598727924000236 -1 -1 -1
141 1 11.913957583865322 2.6637566636319745 7.747411930673379 2 1 -1
614 1 12.551670040200138 4.138599657006593 9.187794816875595 -2 1 -2
703 1 11.125389481927806 5.188914116729907 7.596036911546217 -1 -2 2
167 1 13.365198301899081 1.8289119623925818 9.378125360322525 3 1 0
1541 1 10.601656665115051 23.24740792005349 9.765165156986031 -2 -1 1
907 1 3.8364427736770232 4.727171197071742 5.2169093087836815 -1 1 1
351 1 1.7430970203254836 5.371470505644965 6.1233581112098685 0 2 2
1787 1 2.1200932267895913 7.265490426524458 7.819861536463574 -1 0 2
1405 1 4.0888928984527055 6.341549516845423 6.919933496306258 2 1 0
791 1 3.0412206688684753 8.908956825571044 6.4177509280199905 1 0 0
1248 1 4.383493539346041 8.134255914219093 8.082842981746484 2 3 -1
1250 1 3.1633011363307655 6.048302041971188 9.486762998880728 2 -1 2
713 1 2.5471905735014344 8.697903863932712 9.173128235903649 -1 -1 0
1919 1 5.133264394186506 8.062967987901606 5.847123705874787 1 0 -1
927 1 13.45828440022956 24.162940954044068 10.239877439440098 -2 -2 3
68 1 14.093994480060305 19.70640912842712 9.157133658851244 2 1 2
92 1 9.334294419313343 8.26295383674933 5.464241332853203 1 -1 -2
1823 1 5.155010293320146 5.435597826403513 8.588182357615366 1 1 1
796 1 5.902964514624102 5.524250141436535 5.80131569073519 1 2 1
438 1 8.334776760163496 6.799725674997453 6.593068687086162 -1 0 3
1982 1 6.18382209752675 7.097442006472623 7.468294440141893 1 0 3
137 1 7.5806866192191515 9.000790962932763 6.406939855626074 2 -1 -2
726 1 8.550443337443642 8.271080576278816 8.19244982006801 1 -1 -1
452 1 6.640029154500421 9.006713034116194 8.82191441928872 -1 0 0
1737 1 7.291416967873462 6.420125702292871 9.446632518569782 4 5 -2
600 1 9.164085079616248 5.776736920751961 8.382230957737548 0 -3 -1
185 1 5.546291569884793 9.548386046622246 7.214424280525186 2 3 -1
590 1 10.245020488584894 5.777560263761168 5.252051595636697 0 -1 1
1022 1 13.878171420820111 5.817913327141386 8.030996128850813 -1 2 3
1632 1 11.427569675650826 9.03263540857053 6.115752763491342 -1 2 0
1757 1 12.455770080125587 6.342580243572763 6.249709313987483 -1 -1 1
1071 1 10.484056008686972 7.377994227342664 7.296240350079936 3 -2 0
1129 1 12.799959290365463 8.646050177788522 7.881817234691155 4 1 0
368 1 10.763961701709865 8.673502521488732 8.904971942176434 -1 1 -1
1915 1 11.742967876057033 6.581032194606486 9.039694837407902 0 1 2
1475 1 6.716549094036816 16.08240871255547 13.714132697977245 0 2 -2
929 1 3.584545087000118 12.760820339486207 5.647739320030963 2 -2 -1
1498 1 4.314206582486037 10.503128054477761 5.777122998335685 3 3 0
509 1 3.418286079155974 10.511385701962405 8.304404325198139 -2 -2 -4
950 1 2.4636213370720723 11.012532580506416 6.408221789441841 -2 1 0
1074 1 2.728160135708495 12.794261178318022 7.64041898203361 -1 1 0
1381 1 1.3769019210190994 13.796182295235925 6.211798000906896 2 -2 2
2045 1 1.6498892558354683 11.550331244095252 9.000336381963189 1 0 -1
1308 1 4.932848466315659 12.25511489727508 6.945567879510092 2 1 0
1858 1 14.130625655986437 25.989689651277153 12.04808748954144 -3 2 -2
1275 1 8.830371198675905 10.41092737432603 5.593348405181963 1 0 0
499 1 5.9553520126653785 11.359935457041876 8.549633563317737 -1 1 -2
401 1 5.840221496362439 14.005136363281087 5.8770512532143515 1 -1 -3
795 1 6.774460154680843 11.1839350662569 6.199461432377985 2 0 1
1783 1 7.803543396067375 10.893951263698991 8.117735449623583 1 3 -1
853 1 7.243695852347191 12.886183350034166 7.84268894400109 -1 -1 0
1027 1 9.359595910821342 12.56041308803103 6.700538787512101 -2 0 4
431 1 9.54285364078219 14.029362323020587 8.543223459262435 3 -2 0
1836 1 8.066003250396731 12.336700235728099 9.905048419873527 0 2 -1
312 1 9.526559445302153 9.788945605577995 7.274096214499247 2 1 0
1732 1 14.17211773803195 9.717300605768902 6.656434212128993 2 0 0
1746 1 9.92191054907131 11.676805327078124 8.71996200708568 3 -1 0
1780 1 10.95862593354017 11.249520348051991 6.1987503918596625 -1 -1 1
1264 1 11.705828484406512 10.719968894360258 7.9502232510532105 -2 1 0
671 1 11.3015414480829 13.158234463404881 7.732708997939114 3 3 1
393 1 13.248741340843955 12.09433360001794 7.031035028099638 1 0 1
751 1 12.345805396940316 12.333895205818036 9.37322311203469 2 -2 -1
177 1 13.139738524861516 14.250493021976526 8.304991036588678 4 2 0
1500 1 10.77725448070751 13.566091413171609 5.525452974379795 -1 6 3
1449 1 5.244924164705451 14.022824131330879 8.503237539842623 3 1 1
1724 1 1.0645445308103214 17.84501763534061 7.830897731560269 2 -1 0
24 1 4.009150062004142 14.699148424021429 6.730604598286942 1 -3 -3
428 1 1.9726979153855884 15.57490500250416 7.801531435912905 -1 1 0
1898 1 3.0654483629088114 17.07570223574278 6.842404655852457 1 -2 -1
1744 1 4.5413137874458105 16.32390274632068 8.251773257455834 0 3 -2
356 1 5.000745145975499 16.51049598868113 6.134161532838591 0 -2 0
820 1 2.4129787948694212 17.010330329619123 9.361510440005619 2 -1 2
466 1 4.070678246765722 18.77868706091168 7.894512257858674 -4 1 0
225 1 6.171181380795375 18.014885561804363 7.252349901630511 3 0 2
1 1 8.383028431097221 14.504100377138046 6.667122480263581 -1 -3 1
1506 1 6.59740260845626 15.640605641848554 7.51490843005607 -2 1 1
916 1 8.073700943098924 17.07628440222497 6.328270207322382 0 0 -1
1974 1 8.491212729289193 16.326240643073 8.570315613064315 -3 1 2
721 1 6.575277159080488 16.9943458387376 9.26300814736509 -2 1 0
1011 1 8.000432494425024 18.65538246193698 8.17907627433322 -2 -3 2
729 1 8.931438050647255 18.731661931786434 5.676212108274773 1 0 1
1137 1 8.536798944321848 18.051620964661787 10.254441112001404 2 -1 -2
573 1 10.111146537411694 17.667011418989595 7.331537950372653 2 -2 -1
1196 1 12.5527155773269 14.707700690855773 6.278909185433509 2 -1 1
293 1 10.738883236594656 15.356481328871729 7.073341692378787 0 -1 1
1714 1 12.442315533899572 16.393433846796853 8.39295147118934 2 0 -3
1713 1 10.748010974633772 17.385392503732987 9.372355105998667 3 -2 0
1468 1 12.041969277727834 17.050903376925604 6.314098035823876 2 0 2
520 1 11.317283415721901 14.78485803575711 9.236991472874044 2 0 1
1634 1 12.207376417346545 18.66621553159151 7.7137435756754185 -2 0 3
1785 1 4.428005168151461 18.903551875506224 5.749367011418027 3 0 0
107 1 2.390277926579314 19.352932893826072 7.0028649098359566 2 3 1
894 1 2.6692693513565895 21.325003361144837 8.37107496450531 1 -1 0
770 1 5.0245881176309455 20.631182841169903 7.404462887742413 -3 -2 0
339 1 3.6644645256801867 21.017930034836674 5.96899855797196 2 1 -2
1483 1 4.813605555228756 22.168275167205714 9.10667533718899 0 0 -1
637 1 1.4251497656254082 21.780261867295636 6.4799404769292615 1 2 1
1124 1 3.5519217478643466 22.76154037238134 7.368518797666803 0 3 -2
2020 1 1.6375622972728427 19.452049149512114 9.325908979594095 -1 -1 -1
337 1 6.143770932971916 22.1514048144833 6.198098947148492 1 -1 3
532 1 6.769560893187396 19.828661761632155 6.294687227861315 -1 2 0
1087 1 6.828166173090379 21.411802976047134 8.359831995305003 3 0 -1
259 1 8.716743190917011 20.93351777149936 7.152011787708884 -1 1 -1
557 1 8.764551090971075 22.282994239356384 9.191044380470077 -1 0 -2
1934 1 6.101408458528383 19.5309152048884 9.11019702382224 0 -3 1
995 1 7.925250419212809 23.12551615933424 7.135199689795038 1 1 1
702 1 8.215769866456844 20.345436713756 9.920799232072401 1 3 1
419 1 11.959489874835652 26.267889589242685 12.938329683334208 -1 -2 -1
1576 1 10.224786423784613 21.886818220629216 6.124213210159533 1 1 1
236 1 13.782545235416613 22.6218768527581 6.2778042908570395 -1 -2 2
1161 1 10.02013130907284 19.487642065972082 8.988035962204398 1 1 -1
462 1 10.675363270169804 19.82935704707871 6.80913587671983 -1 0 -2
1979 1 10.593001842033688 21.581131399153733 8.25624726502004 0 -2 3
746 1 12.451093693347177 20.837780961047088 7.739341549263996 3 -2 0
267 1 13.196706957253403 22.38923974718856 9.381321353002 -2 -1 1
171 1 12.008101858799325 23.01603154894596 7.104940541778714 -1 -2 0
444 1 4.594703107119555 3.1347774165382045 13.905553011398462 2 -1 1
405 1 11.881082973299783 20.7542191202026 10.091027358954276 0 -1 -1
365 1 3.4930195645765143 27.24170795288341 6.23812629631623 2 -2 3
571 1 1.537150546914574 26.158668274773063 5.430614868827216 4 -3 1
94 1 2.368177042189008 23.93674692177033 5.910578154210712 -1 1 -1
1132 1 1.707618638101774 23.350095039260204 8.567068884884408 1 2 -1
307 1 2.559871868863752 26.91807859221103 9.296949776867795 1 2 -1
437 1 2.380636016180784 25.40875523343017 7.646655942173182 -2 -4 -1
2036 1 4.280081831048827 24.87945249933302 7.112135725322689 0 3 0
1766 1 4.592303049999825 26.627869620455478 8.388713878579225 0 4 -1
240 1 3.730860073615213 24.38251521411358 9.239340272312576 1 -4 0
1320 1 7.0822300622741095 27.399089298767954 8.909478347723148 -2 0 -1
1671 1 5.3387404581439535 26.46032837253295 5.357470031653558 0 -3 -3
1975 1 6.071653908267444 24.172939499373456 5.7496820074018835 1 1 1
922 1 5.9529286455166925 23.564036546683127 7.801340498627871 1 -3 0
309 1 6.397124878071057 25.646701326782065 7.5465008969727 -3 -2 0
1718 1 8.081871607810431 25.105133924109893 6.207111848494587 -1 2 2
1613 1 7.895419435868387 24.458517331593455 9.001009690098714 3 2 -1
1385 1 8.847429840022691 26.524089514748198 7.807901072583655 1 -2 2
694 1 5.854201533659722 25.38426235734049 9.582859830442 -2 1 1
1096 1 1.3802445137183086 11.504514928292982 4.59611447842518 3 1 1
1753 1 13.82723414230543 13.174743342361582 12.384930992634606 3 4 2
299 1 10.881269990188198 1.0435363686995045 8.774773334421923 -3 1 2
120 1 11.818207689458921 1.1398376025990806 6.234705967282349 1 1 0
369 1 10.217130923727852 24.138371891419098 5.725554515854861 1 -1 1
675 1 9.826862895506686 24.157811341377517 7.788511673991043 0 1 0
1183 1 12.923026822890439 26.778871704609614 7.9578088195913095 1 1 1
1386 1 12.875538321581441 25.102827282849503 6.269960269812231 -1 0 -2
1200 1 10.855877876878997 25.902753485081575 7.169586655842473 0 -1 -1
1209 1 12.035682706956017 24.59443537028468 8.948299362948044 -3 -1 2
1798 1 10.10371222886281 25.567909156305554 9.635907346252575 -2 0 1
1276 1 4.790810872533587 1.7112948705850015 9.894052458551204 0 -1 -2
1590 1 2.102068159830144 4.474486731893098 10.53386934760169 1 2 -2
652 1 3.019881013513601 2.103429023357818 11.0469319415277 1 1 -2
659 1 1.3660412612579194 4.512611746530419 13.580324392393214 3 2 5
1605 1 2.705191878979679 1.9962953712586817 13.238112276292831 2 1 -1
1165 1 3.319985239528416 4.09860662750839 12.402894892064154 1 -1 -1
1285 1 4.322450747827105 1.1101874562491418 12.363300459556893 -3 1 0
653 1 10.853959093612259 24.608101761948994 14.042782120966319 -2 -1 -2
1614 1 9.640635286734248 25.550774265506185 12.199220980383085 2 -4 1
1234 1 4.972700874446554 3.045563366395067 11.315854522512074 5 0 -1
458 1 2.7595058881691514 16.116693236401222 14.091489692399698 1 -1 0
640 1 8.128190860162704 5.353906881395325 13.788445453010594 -2 -1 -1
1560 1 5.7230122731624995 4.597585674287545 12.962858851700785 0 2 1
1260 1 6.277575706547593 4.617154462060544 10.524806508673937 0 0 -1
1344 1 6.351300054506673 2.022792126543947 13.025773157518476 3 0 -1
547 1 7.078045686813719 2.6431071534324304 10.52042634994593 0 -4 1
166 1 7.60628309534087 3.830240649308921 12.212038406918644 1 0 1
792 1 8.61410812170661 1.1820150740966622 12.266325227153837 1 -2 4
805 1 0.9958241815837323 14.437774754585618 2.319522078595348 -4 -2 -1
1881 1 9.406661982323081 3.271275379286303 11.005090381759969 -1 2 -3
404 1 9.943156631046804 27.046411960802402 13.881337121962726 -1 -1 2
1792 1 10.112108046851013 4.561310869230193 12.748444961236672 1 2 4
1229 1 11.512127306422057 2.3219977830731855 10.306026645952336 -1 2 -3
1226 1 13.169892947027336 3.138309396322676 13.431001296989772 2 2 -1
1705 1 10.944426493188745 2.538208467454918 12.64415655823945 -1 4 0
1060 1 13.214792945885385 1.5394013620393474 11.945328571323584 2 0 -2
2040 1 11.810720113098334 4.064316618287151 11.468961960170361 -2 2 1
1927 1 10.541093641809532 4.901375304255469 9.63832745925409 -5 -1 -4
765 1 12.20155084116133 5.371734750028871 13.033049282132804 -1 0 -5
1926 1 13.128689401290686 5.703552403815923 10.646671141740393 0 1 -1
1495 1 4.3102780646021595 5.510580517088694 11.062637136891137 3 -2 -1
816 1 1.7296902089346005 8.409431162009582 12.167736504847857 1 1 1
766 1 2.513093341038438 6.312163760495346 12.194427008059618 0 -3 1
1024 1 1.5113364843765726 7.174967106442828 10.392355538508806 2 -4 -1
693 1 3.7576421061374585 7.92806816180923 11.112371699272394 0 -1 -1
553 1 4.784332394398108 7.065586544837372 12.834530483574255 0 -2 0
1894 1 3.926469909197775 9.612372211968584 12.654556910173625 2 -1 1
1607 1 4.827071846081518 9.852151728460377 9.90590856470896 0 2 -1
488 1 3.1473214051289835 8.169430967796945 13.919185315916359 0 0 -1
952 1 5.275214294670295 7.135714246432299 9.873274259342868 1 3 2
1696 1 8.625616163573422 5.394115604543595 10.783897526507138 -1 -2 -1
217 1 5.955436100739962 8.714487969233584 11.757114448941927 -1 -1 -2
78 1 8.958804069909819 6.95023292507783 12.722528612504375 -1 1 -2
1366 1 6.78784437500109 6.397434114337032 11.780520318197 -1 0 -3
1962 1 7.779019592552789 8.078768097347993 10.600657029859308 1 1 2
595 1 7.116747664269012 7.784538172170358 13.60377490501745 1 0 -1
1677 1 8.225495400127866 9.339887596774291 12.654185307493131 1 2 1
585 1 6.976773562092587 24.441711336294453 11.649486733062455 -3 0 -1
250 1 1.0523070835765265 18.794342928838525 1.1087430198240529 -1 2 -1
207 1 9.710708401351804 7.074235080936817 9.845363830128555 0 -2 -1
1809 1 11.378276642411896 24.69594392463665 11.080711179187794 2 -3 0
984 1 9.806142817736397 8.628390693700759 11.320956585434464 -1 2 -3
340 1 10.891474394765464 6.523719546171485 11.705701716506697 1 -1 3
1064 1 13.414128133663334 7.230952098734425 12.29476253512914 0 2 -1
1653 1 12.210073822402627 7.941695323053737 10.721141919190396 1 0 -3
2026 1 11.11665469046052 8.058920330758538 13.29745368136491 0 3 2
607 1 1.2747454341081597 12.906856432385286 13.601899161337387 4 1 0
877 1 3.979721306873723 12.48263301311 9.729693664200703 1 -2 1
1370 1 1.9062682393917383 10.39289683356473 13.810315449427074 1 1 0
1650 1 2.791163965662287 10.531595754376989 10.73738217300999 -1 -1 2
1631 1 3.0539317681362537 12.085084713437457 12.738689601880054 2 -2 -1
2009 1 2.2330942899965374 12.842706685883641 10.699802060588171 -2 -1 4
901 1 4.198452040031116 14.058120690186461 11.417924708678404 -3 -1 -1
174 1 5.353121772786907 12.944874201299855 12.993567231537607 -3 -3 0
135 1 4.640174303309551 11.382107638101239 11.537670084833461 0 -1 -2
1479 1 8.779455493493725 9.95507326026419 9.624638524900226 1 -2 -4
1923 1 6.327642696825473 10.317951260932077 12.989106353113003 3 -1 1
797 1 6.841811475287595 10.655024274080551 10.880494682449886 3 1 1
264 1 7.416515536293002 12.024714950350766 12.2207236983873 1 0 2
634 1 6.078169632707776 13.049910073916896 10.45122632902436 -1 1 1
277 1 8.165591968005415 13.801638470217753 11.441323304969988 1 -1 -1
422 1 9.29585533597471 10.929378883915941 11.466666275009691 -1 2 2
245 1 9.600824694640448 12.832095712026835 12.919293603520881 0 3 1
1158 1 8.152322957287371 19.542578307486345 1.2665448185270767 0 0 0
948 1 7.870143501857911 13.692041413966292 13.83711798953212 0 0 3
867 1 12.873772986427582 9.81860484212437 9.594343529524224 -3 -1 0
856 1 12.091399351932406 10.013069472619959 11.914688206600937 1 2 0
510 1 8.88730959535101 2.938857269264169 13.522422713692247 3 3 1
1262 1 11.969203950265287 13.899936257324416 13.624957336562924 0 1 -1
937 1 13.687040714341569 11.368039038435725 11.111438194499112 2 -4 3
1728 1 10.250626669999637 10.181101455358968 13.253128277826939 -3 0 2
790 1 10.31926991025485 12.994926526510344 10.401362023175528 1 -1 -1
1434 1 10.832295114203323 10.662243391524099 10.169510964891833 -2 -1 0
1301 1 11.614058558968958 12.07858825843653 11.992964906062493 -2 0 0
1466 1 12.999342210171093 11.139913432738856 13.584014800782164 0 1 2
467 1 12.271719408307673 13.845954675329606 11.053504146762883 1 2 0
1379 1 2.9996808503250114 14.529691837018847 9.319040331960435 -2 0 3
118 1 2.0278729318833646 14.641139326313429 12.228363372500462 -1 0 3
1108 1 3.4278719900151513 16.11365436811876 11.155721402478742 -2 -1 0
1467 1 3.6940963071324244 17.82166180788412 12.931538234816552 2 1 2
1392 1 1.6188814372925848 16.818111410454623 12.172528945111527 1 2 -1
598 1 4.538295269913421 15.381543675046823 13.16068096636876 3 0 3
1539 1 4.482506747566123 17.80078305072083 9.900819422345178 1 0 3
495 1 1.2148571453549355 15.348158219737089 10.149557865824454 1 1 -1