LAMMPS (29 Oct 2020)
OMP_NUM_THREADS environment is not set. Defaulting to 1 thread. (src/comm.cpp:94)
  using 1 OpenMP thread(s) per MPI task
package omp 0
using multi-threaded neighbor list subroutines
package omp 2
set 2 OpenMP thread(s) per MPI task
using multi-threaded neighbor list subroutines
# units metal  #<----->
# dimension 3
# boundary p p p

# lattice fcc 3.5440
# region box block 0 8 0 8 0 8 units lattice
# create_box 1 box
# create_atoms 1 box

read_restart after_heating_press_800000_5000.lmp  #<----->
Reading restart file ...
  restart file = 29 Oct 2020, LAMMPS = 29 Oct 2020
  restoring atom style atomic from restart
  orthogonal box = (0.65435672 0.65435672 0.65435672) to (27.697643 27.697643 27.697643)
  2 by 1 by 2 MPI processor grid
  pair style eam/alloy/omp stores no restart info
  2048 atoms
  read_restart CPU = 0.002 seconds
# read_restart after_cooling_press_500000_2300.lmp

variable P equal 800000     #<----->
variable dt equal 0.001
variable loopVar loop 6
variable sys_press equal "press/10000"

# variable sim string "heating"  #<----->
variable sim string "cooling"



pair_style eam/alloy
pair_coeff * * Co_Zhou04.eam.alloy Co
Reading eam/alloy potential file Co_Zhou04.eam.alloy with DATE: 2018-03-30




neighbor 2 bin
neigh_modify every 10 check yes

thermo 1000
thermo_style custom step temp vol press ke pe density

timestep $(dt)
timestep 0.0010000000000000000208



# velocity all create 4400 123123 #<----->

print """
yo aagadi
"""

yo aagadi

label ensemble

print """
Label pachadi solti, hos garam.
"""

Label pachadi solti, hos garam.

variable T equal 3300-${loopVar}*100  #<----->
variable T equal 3300-1*100  
# variable T equal 4550


reset_timestep 0
fix 1 all npt temp $T $T $(dt*100) iso $P $P $(dt*1000)
fix 1 all npt temp 3200 $T $(dt*100) iso $P $P $(dt*1000)
fix 1 all npt temp 3200 3200 $(dt*100) iso $P $P $(dt*1000)
fix 1 all npt temp 3200 3200 0.10000000000000000555 iso $P $P $(dt*1000)
fix 1 all npt temp 3200 3200 0.10000000000000000555 iso 800000 $P $(dt*1000)
fix 1 all npt temp 3200 3200 0.10000000000000000555 iso 800000 800000 $(dt*1000)
fix 1 all npt temp 3200 3200 0.10000000000000000555 iso 800000 800000 1
Resetting global fix info from restart file:
  fix style: npt/omp, fix ID: 1
print """
<--------------------------------------------------------------------->
<------------------ Equilibrating at temperature $T ----------------->
<--------------------------------------------------------------------->
"""

<--------------------------------------------------------------------->
<------------------ Equilibrating at temperature 3200 ----------------->
<--------------------------------------------------------------------->

fix temp all print 1000 "$(step) $(temp) $(press) ${sys_press} $(vol) $(ke) $(pe) $(density)" file temp_${sim}.txt screen no title  "step temp press pressGiga vol ke pe density"
fix temp all print 1000 "$(step) $(temp) $(press) ${sys_press} $(vol) $(ke) $(pe) $(density)" file temp_cooling.txt screen no title  "step temp press pressGiga vol ke pe density"
run 250000
All restart file global fix info was re-assigned
Last active /omp style is pair_style eam/alloy/omp
Neighbor list info ...
  update every 10 steps, delay 10 steps, check yes
  max neighbors/atom: 2000, page size: 100000
  master list distance cutoff = 7.6035394
  ghost atom cutoff = 7.6035394
  binsize = 3.8017697, bins = 8 8 8
  1 neighbor lists, perpetual/occasional/extra = 1 0 0
  (1) pair eam/alloy/omp, perpetual
      attributes: half, newton on, omp
      pair build: half/bin/atomonly/newton/omp
      stencil: half/bin/3d/newton
      bin: standard
Per MPI rank memory allocation (min/avg/max) = 4.338 | 4.338 | 4.338 Mbytes
Step Temp Volume Press KinEng PotEng Density 
       0    4976.0576     19777.82    809306.62    1316.6425   -6834.6406    10.133493 
    1000    3288.9187     19160.66    802534.16    870.23313   -7196.1957    10.459889 
    2000    3175.6595    19146.211    798335.26    840.26526   -7222.1057    10.467783 
    3000    3208.1827     19171.46    794117.47    848.87075   -7232.3558    10.453997 
    4000       3258.1    19118.456    806416.29    862.07865   -7208.3612     10.48298 
    5000    3235.1496    19073.889    820292.77    856.00607   -7169.1945    10.507473 
    6000     3109.925     19161.74    797988.26    822.87221   -7211.5301      10.4593 
    7000    3087.9698    19175.712    789310.34    817.06295   -7233.5248    10.451679 
    8000    3179.1736    19175.471    794444.79    841.19508   -7225.0524    10.451811 
    9000    3206.0767    19082.002    808123.98    848.31353   -7220.6014    10.503006 
   10000     3306.814    19067.517    818797.05    874.96815   -7185.7624    10.510985 
   11000    3216.4005    19204.191    788855.58    851.04515   -7227.2801     10.43618 
   12000    3221.8742    19188.185    790308.08    852.49346   -7232.0738    10.444885 
   13000    3179.2477    19158.585    798812.14     841.2147      -7215.2    10.461023 
   14000    3208.4504    19112.511    809757.14     848.9416   -7200.5217     10.48624 
   15000    3259.7923    19184.372    791897.19    862.52642   -7234.0257    10.446961 
   16000    3101.8042    19150.132    800923.39    820.72348   -7194.5633     10.46564 
   17000     3222.381    19056.443    824151.52    852.62755    -7160.789    10.517093 
   18000    3172.5123    19118.502    806124.42    839.43254   -7202.4262    10.482954 
   19000    3207.4378    19223.374    792037.41    848.67365   -7196.5369    10.425765 
   20000    3173.6105     19152.59    798011.37    839.72311   -7215.9803    10.464297 
   21000    3138.8547    19082.272    821233.56    830.52687   -7155.7703    10.502858 
   22000    3181.1296    19098.404    815513.92    841.71262   -7171.3009    10.493986 
   23000    3236.7413    19218.098    793331.34    856.42723   -7194.8727    10.428627 
   24000    3162.7193    19114.842    804178.38    836.84135   -7214.8764    10.484962 
   25000    3178.8593    19128.773    801850.25    841.11191   -7217.5978    10.477326 
   26000    3272.8841    19171.767    800517.12    865.99046   -7200.6759    10.453829 
   27000    3349.7385    19098.592    818473.28    886.32578   -7170.7096    10.493883 
   28000    3205.3984    19182.162    794417.04    848.13405    -7218.515    10.448165 
   29000    3322.6301    19198.849    792642.18    879.15303   -7221.2408    10.439083 
   30000    3170.9999    19094.416    809365.52    839.03237   -7202.4042    10.496178 
   31000    3190.7326    19158.296     801037.6    844.25355   -7203.5814     10.46118 
   32000    3123.0531    19155.982    796146.22    826.34585    -7220.686    10.462444 
   33000    3227.5245    19134.867    805502.19    853.98852   -7194.8551    10.473989 
   34000     3140.416    19149.928    804634.48       830.94   -7183.6621    10.465751 
   35000    3204.9073    19213.115    786771.54     848.0041   -7230.4462    10.431333 
   36000    3215.9024    19173.756    793951.08    850.91337   -7228.1121    10.452745 
   37000    3150.2706    19078.169    818079.71    833.54748   -7175.1848    10.505116 
   38000    3240.9915    19154.374    806546.23    857.55183   -7174.2803    10.463322 
   39000     3193.648    19181.157    793720.25    845.02495   -7218.3068    10.448712 
   40000    3214.0712    19174.844    798019.73    850.42882   -7199.2483    10.452152 
   41000    3113.1935    19141.149    803485.27    823.73706   -7189.9492    10.470552 
   42000    3279.0469    19244.003    778896.94    867.62111    -7258.781    10.414589 
   43000    3220.4235     19161.82    796564.09    852.10963   -7227.2025    10.459257 
   44000    3279.5203    19117.902    809227.84    867.74636   -7196.9019    10.483284 
   45000    3239.3303     19166.69    800201.11    857.11227   -7200.4287    10.456599 
   46000    3226.1691    19138.381    796233.17    853.62987   -7238.3166    10.472066 
   47000    3172.3763    19114.268    809724.77    839.39654   -7185.9039    10.485277 
   48000    3265.0127    19229.684    788212.84    863.90772   -7217.8552    10.422344 
   49000    3131.0838    19217.283    782968.08    828.47073   -7240.2953     10.42907 
   50000    3307.8247    19138.174    800467.16    875.23558   -7230.6891    10.472179 
   51000    3237.1217    19123.043    803910.07    856.52788    -7213.746    10.480465 
   52000    3104.1532    19181.896    788882.08    821.34502   -7235.0259    10.448309 
   53000     3260.326    19130.919     805863.1    862.66764   -7202.9376     10.47615 
   54000    3174.8422    19014.372    828946.94    840.04902   -7165.3358    10.540363 
   55000    3238.6527    19186.611    796619.91    856.93299   -7203.7045    10.445742 
   56000    3174.7971    19188.946    787795.72    840.03708   -7246.3395    10.444471 
   57000     3238.373    19134.274    804688.06    856.85898   -7207.2134    10.474313 
   58000    3246.5388    19092.807    811590.14    859.01961   -7202.5239    10.497062 
   59000    3176.4739    19170.031    797474.45    840.48076   -7208.3959    10.454776 
   60000    3182.7623    19136.334    802766.36    842.14464   -7205.6754    10.473186 
   61000    3140.8529    19088.387    810048.41    831.05561   -7208.2457    10.499493 
   62000    3202.4283    19174.299    799292.32    847.34818   -7199.9108    10.452449 
   63000     3116.437    19208.655    784160.47    824.59526   -7243.8024    10.433754 
   64000    3168.8182    19201.098    793366.37    838.45509   -7208.4257    10.437861 
   65000    3204.6464    19110.465    809992.41    847.93506    -7195.609    10.487363 
   66000    3265.6521    19119.091    802826.95    864.07691   -7229.0335    10.482631 
   67000    3181.5561    19134.277    797927.36    841.82547   -7230.0203    10.474312 
   68000    3212.4629    19149.785    801951.28    850.00328   -7198.9375    10.465829 
   69000    3135.4447    19218.199    783411.25    829.62462   -7241.4289    10.428573 
   70000    3246.8749    19178.329    793195.95    859.10853   -7222.8678    10.450253 
   71000    3154.5585    19095.016    809068.07    834.68204   -7205.9281    10.495848 
   72000    3154.7753    19175.682    799430.22    834.73941   -7189.8801    10.451695 
   73000    3315.0571    19180.742    799086.48    877.14926   -7204.1921    10.448938 
   74000    3077.8995    19141.676     805180.2    814.39841   -7180.8375    10.470263 
   75000    3213.9671    19168.016    795829.01    850.40129   -7219.1455    10.455875 
   76000    3136.9037     19158.56    800004.48    830.01065   -7197.6394    10.461036 
   77000    3174.2049    19084.101    818328.68    839.88039   -7168.7887    10.501851 
   78000    3217.1171    19089.356    816828.17    851.23476   -7176.0595     10.49896 
   79000    3194.6932    19152.332    790227.02    845.30149   -7254.1263    10.464438 
   80000     3183.318     19167.36    795588.61    842.29168   -7217.4422    10.456233 
   81000    3235.3087     19159.57    798027.67    856.04818   -7216.6481    10.460485 
   82000    3148.9334    19103.222    805154.56    833.19365   -7217.8039     10.49134 
   83000    3269.1705    19127.844    809608.81    865.00786   -7182.7251    10.477834 
   84000    3192.6894     19201.33    786372.19     844.7713   -7240.5173    10.437735 
   85000    3196.6119    19187.002    787435.52    845.80918   -7251.3284    10.445529 
   86000    3246.4466    19131.854    804112.78    858.99521   -7213.3758    10.475639 
   87000    3139.3968    19048.042    821159.08    830.67032    -7177.181    10.521732 
   88000    3160.5852    19183.068    792458.33    836.27666   -7222.4922    10.447671 
   89000    3244.8742    19203.975    790001.37    858.57917   -7224.8161    10.436297 
   90000    3255.1652    19146.013    800171.93    861.30212   -7216.0798    10.467891 
   91000    3251.9314    19181.357    795906.45    860.44648    -7221.662    10.448603 
   92000    3190.0829    19165.422    803327.49    844.08163   -7181.0493     10.45729 
   93000    3149.1695    19109.648    812374.97    833.25614   -7177.2447    10.487811 
   94000    3197.1492    19186.102    788528.26    845.95135   -7240.9026    10.446019 
   95000    3306.4684    19171.283    801304.12    874.87672   -7201.1962    10.454094 
   96000    3088.6766    19050.365    825781.47    817.24998   -7151.0662    10.520448 
   97000    3262.9235    19134.304    801943.69    863.35493   -7218.8298    10.474297 
   98000    3199.0912    19199.745    794640.77    846.46518   -7198.5668    10.438596 
   99000    3159.8307    19155.003    797306.38    836.07704   -7221.2255    10.462979 
  100000    3196.4194    19175.307    793758.39    845.75824   -7219.4706      10.4519 
  101000    3127.2816     19126.89    799378.55    827.46468   -7230.7874    10.478357 
  102000    3249.7668     19137.95    799371.04    859.87373   -7234.0006    10.472302 
  103000    3238.0316    19091.808    812032.85    856.76865    -7192.169    10.497612 
  104000    3251.3336    19105.952    802981.82     860.2883   -7236.9719     10.48984 
  105000     3121.218    19205.433    790386.99    825.86028   -7215.4997    10.435505 
  106000    3092.7237    19169.949     790476.3    818.32083   -7236.6421    10.454821 
  107000    3285.1473    19052.874    823488.19    869.23525   -7177.8415    10.519063 
  108000    3279.2529    19135.186    804448.47    867.67561   -7206.9903    10.473814 
  109000    3207.8856    19210.194       788933    848.79215    -7220.685    10.432918 
  110000    3114.8371    19098.679    810810.76    824.17194    -7190.496    10.493835 
  111000    3274.0888    19121.101    807648.37    866.30922   -7201.4287     10.48153 
  112000    3235.4085    19149.634    795304.46    856.07458   -7240.5988    10.465912 
  113000    3195.2826    19261.199    781068.41    845.45746   -7223.8505    10.405291 
  114000    3297.3645    19136.923    811500.28    872.46788    -7170.374    10.472864 
  115000    3308.9655    19108.401    806862.38    875.53743   -7215.5166    10.488496 
  116000    3254.0363     19170.26     794698.4     861.0034   -7228.9195    10.454651 
  117000    3149.9855    19151.503    794905.45    833.47205   -7233.8147    10.464891 
  118000    3234.6858    19108.144    809156.83    855.88336   -7195.7815    10.488637 
  119000    3260.7151    19093.431    809300.16    862.77061   -7213.3113    10.496719 
  120000    3152.8929    19238.963    780694.34    834.24133   -7236.5528    10.417317 
  121000    3139.0101    19127.385    800992.77    830.56801    -7218.414    10.478086 
  122000    3260.3765    19176.868    798870.19      862.681    -7200.701    10.451049 
  123000    3183.0086     19143.62    800781.02     842.2098   -7206.6182      10.4692 
  124000    3239.6818    19162.577    799034.36    857.20529     -7212.16    10.458843 
  125000    3293.1036    19280.844    770882.66    871.34044   -7271.5954    10.394689 
  126000     3120.888    19117.019    804564.73    825.77297   -7209.4005    10.483768 
  127000    3198.4899    19130.714    805454.67    846.30608   -7195.9886    10.476262 
  128000    3206.4551    19138.291    795294.18    848.41365   -7248.2892    10.472115 
  129000    3107.6687    19269.857    775626.51    822.27521    -7239.777    10.400616 
  130000    3219.3259    19099.354     810830.9     851.8192    -7195.202    10.493464 
  131000    3195.9727    19109.537    813249.02    845.64004   -7179.4626    10.487873 
  132000    3194.5682     19168.39    798442.24    845.26842   -7204.4134    10.455671 
  133000    3185.8776    19106.206    805657.27    842.96892   -7209.9313    10.489701 
  134000    3200.5498    19108.317    817313.12    846.85113   -7155.8526    10.488542 
  135000    3146.5417     19187.32    789133.21    832.56084   -7237.8747    10.445356 
  136000    3229.8919    19194.015     793794.9    854.61493   -7209.0811    10.441713 
  137000    3230.3898    19055.619    814954.88    854.74666   -7210.8585    10.517548 
  138000    3177.5005    19193.509    793068.01     840.7524   -7212.1462    10.441988 
  139000    3013.4693    19181.252    785711.03    797.35045   -7243.3765     10.44866 
  140000    3271.4616    19164.726    790568.73    865.61406   -7248.2784     10.45767 
  141000    3329.6916    19121.823    810766.83    881.02147   -7192.9702    10.481134 
  142000    3192.0139    19105.335    806809.49    844.59256   -7206.6657    10.490179 
  143000    3301.8898    19205.557    791962.41    873.66524   -7216.4854    10.435437 
  144000    3142.7988    19136.994     803032.1    831.57047   -7199.6513    10.472825 
  145000     3190.599    19032.563    828237.76     844.2182   -7154.8129    10.530289 
  146000    3205.9553    19172.455    801649.53    848.28141   -7188.5068    10.453455 
  147000    3211.4866    19229.545    784415.65    849.74494    -7236.528     10.42242 
  148000    3187.7948    19125.622    801139.88    843.47623   -7223.1967    10.479052 
  149000    3221.5974    19143.758    805064.57    852.42023   -7191.1559    10.469125 
  150000    3212.2468    19146.073    797754.65     849.9461   -7222.8802    10.467859 
  151000    3214.2743    19211.938    783386.11    850.48256   -7254.5274    10.431971 
  152000    3243.7098    19111.218    807241.39    858.27106   -7208.7793     10.48695 
  153000    3151.4194    19109.004    803931.63    833.85145    -7221.372    10.488165 
  154000    3164.6211    19223.943     780863.3    837.34457   -7248.6103    10.425457 
  155000    3164.6924    19199.729    784221.45    837.36343   -7251.0588    10.438605 
  156000    3272.9802    19136.455    806016.76    866.01589   -7196.9707     10.47312 
  157000    3225.7409     19126.91    802488.52    853.51659   -7215.1416    10.478346 
  158000    3274.3994    19204.213    793268.75     866.3914   -7207.3833    10.436168 
  159000    3225.8257    19126.864    802764.41    853.53901   -7220.8064    10.478371 
  160000    3179.2491    19108.024     808632.4    841.21506   -7199.9457    10.488703 
  161000    3226.1401    19161.307    792954.08    853.62221   -7238.5006    10.459536 
  162000    3267.2018    19220.024    789103.14    864.48696   -7219.4442    10.427583 
  163000    3222.1077    19107.295    806923.71    852.55526   -7212.8888    10.489103 
  164000    3206.4963    19097.472    810855.56    848.42454   -7198.2062    10.494498 
  165000    3197.1339    19168.053    791948.61    845.94729   -7239.2189    10.455855 
  166000    3243.2934    19164.124    795987.52    858.16089   -7223.2711    10.457999 
  167000    3093.1725    19104.446    804261.04    818.43957   -7218.5931    10.490667 
  168000    3180.0211    19141.807    801134.72    841.41932    -7206.564    10.470192 
  169000    3219.2124     19204.45    788220.06    851.78916   -7232.3422    10.436039 
  170000     3133.432    19124.992    800417.52    829.09205   -7218.5008    10.479397 
  171000    3245.9243    19076.717    817592.52    858.85701    -7180.978    10.505916 
  172000    3242.4878    19157.241    794312.82    857.94774   -7236.4332    10.461756 
  173000     3263.523    19166.865    795909.75    863.51356   -7217.0992    10.456503 
  174000    3160.7118     19124.13    802875.61    836.31016   -7210.9081    10.479869 
  175000    3230.1949    19144.135    803926.19     854.6951   -7200.0845    10.468918 
  176000    3154.3045    19193.114    791089.22    834.61482   -7220.7868    10.442203 
  177000    3247.0939    19170.959    793808.06    859.16648   -7232.1275     10.45427 
  178000    3208.3244    19079.377    818025.19    848.90824   -7168.9274    10.504452 
  179000    3191.4059    19131.863    802095.39     844.4317   -7217.0812    10.475634 
  180000    3174.6215     19179.55    792098.93    839.99063   -7231.4751    10.449588 
  181000    3191.7919    19152.009    803867.65    844.53384   -7194.3588    10.464614 
  182000    3258.9561    19036.097    827352.74    862.30518   -7168.2513    10.528334 
  183000     3143.428     19155.72    795626.34    831.73696   -7218.6538    10.462587 
  184000     3250.756    19221.166    790498.42    860.13547   -7211.3931    10.426963 
  185000     3213.663    19139.264    803801.93    850.32082     -7199.68    10.471583 
  186000    3182.7955    19138.803    800743.77    842.15342   -7214.5634    10.471835 
  187000    3246.3001    19182.472    791297.03    858.95645   -7237.5077    10.447996 
  188000    3306.3109    19220.085    784751.68    874.83504   -7241.7443     10.42755 
  189000    3248.2221    19059.872    816478.91    859.46501   -7205.5773    10.515201 
  190000    3212.3111    19151.083    803358.45    849.96312   -7197.2992     10.46512 
  191000    3229.2633    19176.468    790847.88     854.4486   -7238.0034    10.451267 
  192000    3212.0603    19179.923    789247.97    849.89675   -7244.7385    10.449384 
  193000    3213.4479    19154.867    799142.14    850.26392   -7213.8508    10.463053 
  194000    3268.0145     19097.14    822034.42    864.70197   -7145.3264    10.494681 
  195000    3172.4444    19137.417    799825.88    839.41456   -7218.7242    10.472593 
  196000    3230.1635     19176.23    800247.41    854.68678   -7196.1799    10.451397 
  197000    3158.3176    19125.241    803375.67    835.67668   -7209.8591    10.479261 
  198000    3267.6616    19191.119    797583.28     864.6086   -7199.5748    10.443288 
  199000    3200.9247    19105.282    810189.38    846.95032    -7192.504    10.490208 
  200000    3160.7263    19145.072     803592.4    836.31402    -7195.609    10.468406 
  201000    3144.9023    19199.906    792527.39    832.12704   -7212.2023    10.438509 
  202000     3201.459    19157.964    793615.07    847.09171   -7235.2848    10.461361 
  203000    3215.2163    19115.729    812999.59    850.73183   -7179.3694    10.484475 
  204000    3182.9886    19130.899    802100.84    842.20452   -7211.4178    10.476161 
  205000    3242.3695    19266.442    771934.03    857.91642   -7271.3715     10.40246 
  206000    3274.9503    19204.733    792575.83    866.53716   -7214.1211    10.435885 
  207000    3145.8933    19048.721    815067.49    832.38925   -7212.2271    10.521356 
  208000    3158.2185    19159.273     796889.2    835.65045   -7219.5535    10.460646 
  209000    3182.4019    19139.516    797814.27    842.04928    -7224.058    10.471445 
  210000    3255.0218    19145.723     801754.7    861.26418   -7207.3138     10.46805 
  211000    3169.3459    19043.318       828475    838.59471   -7147.9429    10.524342 
  212000    3155.0227    19197.443    786476.16    834.80487   -7242.8941    10.439848 
  213000    3227.5024    19199.278    789035.86    853.98266   -7230.5864     10.43885 
  214000    3188.0186    19136.001     801441.8    843.53543   -7215.7916    10.473368 
  215000    3297.5949    19116.304    803970.47    872.52884   -7221.7559     10.48416 
  216000    3189.9715    19119.277    806120.17    844.05216   -7199.7503     10.48253 
  217000    3261.4772    19259.493    780020.87    862.97225   -7241.4612    10.406213 
  218000    3258.3263    19172.535    794388.31    862.13852    -7223.183    10.453411 
  219000    3233.5551    19118.272     803577.9    855.58418   -7220.7418     10.48308 
  220000    3255.2463    19134.295    804964.67    861.32358   -7203.3916    10.474302 
  221000    3253.0004    19088.047    815359.69    860.72932   -7189.5312     10.49968 
  222000    3113.1001    19230.282     776222.5    823.71233   -7263.9623     10.42202 
  223000    3171.0178    19187.231    790020.63     839.0371   -7234.4486    10.445405 
  224000    3214.0541    19135.767    804624.15    850.42431   -7200.2051    10.473496 
  225000    3300.4449    19081.444    812816.29    873.28292    -7208.876    10.503313 
  226000    3135.1651    19126.716    804408.36    829.55064   -7202.3007    10.478453 
  227000    3125.8933     19123.34    798931.08    827.09736   -7227.4397    10.480302 
  228000    3188.3613    19118.216    802535.55     843.6261   -7225.6986    10.483111 
  229000    3242.4648    19135.023    808474.56    857.94164   -7181.5932    10.473904 
  230000     3264.969    19165.745    800931.67    863.89616   -7195.5397    10.457114 
  231000    3273.6153    19137.256     802542.6    866.18392   -7211.5949    10.472681 
  232000    3196.5094    19195.818    786554.37    845.78207   -7247.0963    10.440732 
  233000    3166.9996    19220.897    781460.42    837.97391   -7248.0005    10.427109 
  234000    3231.1541    19146.048    801426.75    854.94889   -7210.0918    10.467872 
  235000    3195.4541    19097.223    806501.24    845.50282   -7221.3916    10.494635 
  236000    3157.7551     19105.51    803285.12    835.52785   -7229.7382    10.490083 
  237000    3190.2499    19189.643    787528.51    844.12583   -7244.7621    10.444092 
  238000    3211.0575    19154.949    798375.37    849.63142   -7221.5169    10.463008 
  239000    3245.3318    19113.901    808589.68    858.70025   -7202.9085    10.485478 
  240000    3271.8908    19156.906    800022.53    865.72764   -7215.1826    10.461939 
  241000    3189.6375    19192.555    783385.69    843.96377   -7262.4567    10.442507 
  242000    3253.0992    19180.304    790252.15    860.75548   -7240.3783    10.449177 
  243000    3237.8583    19107.322    812216.89     856.7228   -7181.6554    10.489088 
  244000    3183.7011    19095.953    812620.24    842.39304     -7190.61    10.495333 
  245000    3217.0028    19177.997    792046.65    851.20452   -7233.8228    10.450434 
  246000     3153.248    19124.189    805155.36    834.33527   -7204.0411    10.479837 
  247000    3270.0695    19107.593    811991.37    865.24572   -7188.7031    10.488939 
  248000    3196.4032    19146.956    800104.56    845.75395   -7213.7158    10.467376 
  249000    3186.3233    19206.326       784463    843.08685   -7248.6847    10.435019 
  250000    3225.3305    19133.292    805542.32      853.408   -7196.6999    10.474851 
Loop time of 553.627 on 8 procs for 250000 steps with 2048 atoms

Performance: 39.015 ns/day, 0.615 hours/ns, 451.567 timesteps/s
124.8% CPU use with 4 MPI tasks x 2 OpenMP threads

MPI task timing breakdown:
Section |  min time  |  avg time  |  max time  |%varavg| %total
---------------------------------------------------------------
Pair    | 338.1      | 342.17     | 346.34     |  19.1 | 61.81
Neigh   | 5.1076     | 5.1254     | 5.1466     |   0.6 |  0.93
Comm    | 26.068     | 30.425     | 34.514     |  65.4 |  5.50
Output  | 0.0062992  | 0.011221   | 0.012862   |   2.7 |  0.00
Modify  | 174.8      | 174.92     | 175.09     |   0.8 | 31.59
Other   |            | 0.9756     |            |       |  0.18

Nlocal:        512.000 ave         518 max         504 min
Histogram: 1 0 0 0 0 1 0 1 0 1
Nghost:        3164.50 ave        3168 max        3157 min
Histogram: 1 0 0 0 0 0 0 1 0 2
Neighs:        49666.5 ave       51731 max       48488 min
Histogram: 2 0 0 0 1 0 0 0 0 1

Total # of neighbors = 198666
Ave neighs/atom = 97.004883
Neighbor list builds = 5214
Dangerous builds = 0


# fix 132 all momentum 100 linear 1 1 1 angular
fix out_file_1 all print 1000 "$(step) $(temp) $(press) ${sys_press} $(vol) $(ke) $(pe) $(density)" file one_phase_${sim}_press_$P_$T_.txt screen no title  "step temp press pressGiga vol ke pe density"
fix out_file_1 all print 1000 "$(step) $(temp) $(press) ${sys_press} $(vol) $(ke) $(pe) $(density)" file one_phase_cooling_press_$P_$T_.txt screen no title  "step temp press pressGiga vol ke pe density"
fix out_file_1 all print 1000 "$(step) $(temp) $(press) ${sys_press} $(vol) $(ke) $(pe) $(density)" file one_phase_cooling_press_800000_$T_.txt screen no title  "step temp press pressGiga vol ke pe density"
fix out_file_1 all print 1000 "$(step) $(temp) $(press) ${sys_press} $(vol) $(ke) $(pe) $(density)" file one_phase_cooling_press_800000_3200_.txt screen no title  "step temp press pressGiga vol ke pe density"

# dump 3 all custom 1000 traj_npt_new.lammpstrj id type x y z
run 50000
Last active /omp style is pair_style eam/alloy/omp
Per MPI rank memory allocation (min/avg/max) = 4.338 | 4.339 | 4.339 Mbytes
Step Temp Volume Press KinEng PotEng Density 
  250000    3225.3305    19133.292    805542.32      853.408   -7196.6999    10.474851 
  251000    3244.8333    19101.831    805793.21    858.56835   -7224.7149    10.492104 
  252000    3173.6996    19181.148     794171.7    839.74668   -7217.6669    10.448717 
  253000     3141.098    19175.359    789398.55    831.12044   -7237.6361    10.451871 
  254000    3256.7718    19125.652    807901.53    861.72721   -7196.2864    10.479036 
  255000    3156.3562    19133.584    809540.36     835.1577   -7174.3367    10.474691 
  256000    3213.4025    19205.527    785435.85    850.25191   -7245.1088    10.435454 
  257000    3114.0737    19146.749    793355.71    823.96994   -7239.6403    10.467489 
  258000    3239.5964    19116.206    804563.76    857.18269   -7221.0281    10.484213 
  259000    3204.4486    19121.426    804347.05    847.88273   -7212.6282    10.481351 
  260000    3248.5714    19168.088    800239.47    859.55742   -7197.8198    10.455836 
  261000    3209.6204    19208.548    786355.28    849.25118    -7238.637    10.433813 
  262000    3182.0995    19208.827    784099.87    841.96927   -7246.9533    10.433661 
  263000    3191.5129    19185.793    796798.15       844.46   -7199.5307    10.446187 
  264000    3165.6906    19086.094    806339.98    837.62754   -7223.3739    10.500754 
  265000     3239.269    19114.133    804271.84    857.09604   -7218.5186    10.485351 
  266000    3270.9072    19154.963    796618.87    865.46738   -7229.5051       10.463 
  267000    3163.6727    19196.273    791904.48    837.09361   -7214.4542    10.440484 
  268000    3120.4417    19236.161    772740.48    825.65488   -7278.2537    10.418835 
  269000    3247.3562    19157.892    800152.82    859.23589   -7205.3639    10.461401 
  270000    3170.5183    19073.261    814316.59    838.90494   -7197.9887    10.507819 
  271000    3131.0147    19204.897    795082.41    828.45246   -7190.7676    10.435796 
  272000    3136.1615    19211.888     789813.5    829.81426   -7211.2622    10.431998 
  273000    3278.7978    19176.152    799171.48    867.55521   -7202.9182    10.451439 
  274000    3195.8258    19084.746     814022.4    845.60118   -7192.1274    10.501496 
  275000    3272.2793    19200.661    795840.62    865.83042   -7198.6589    10.438098 
  276000     3191.242    19188.596     792160.4    844.38832   -7222.9879    10.444662 
  277000    3322.1122    19215.239    788037.45    879.01598   -7232.0848    10.430179 
  278000     3338.613    19085.012    812607.63    883.38204   -7210.8375     10.50135 
  279000    3192.8651    19118.552    806541.04    844.81779   -7205.5779    10.482927 
  280000    3191.1258    19181.543     794967.1    844.35758   -7217.8996    10.448502 
  281000    3133.7232    19128.426    807877.58     829.1691   -7184.4233    10.477516 
  282000     3149.827    19136.213    807000.79    833.43011   -7183.0264    10.473252 
  283000    3099.6974     19207.56    781761.84    820.16603   -7251.5602    10.434349 
  284000    3139.8546    19207.008    788406.22    830.79146   -7227.2949    10.434649 
  285000    3269.7793    19141.109    800077.06    865.16896    -7226.339    10.470574 
  286000    3240.6526    19133.752     803046.7    857.46215   -7208.7854    10.474599 
  287000    3263.3921    19151.959    805974.32    863.47893   -7187.2323    10.464641 
  288000    3063.2583    19115.193    805715.68    810.52441   -7199.5792    10.484769 
  289000    3269.2496    19207.788    785514.32    865.02877   -7246.5698    10.434225 
  290000     3182.588    19220.784    784517.97    842.09851   -7229.7222     10.42717 
  291000    3216.4836    19124.207    808420.06    851.06714   -7194.5335    10.479827 
  292000     3166.316    19084.092    814432.07    837.79301   -7185.3441    10.501856 
  293000    3308.1728    19155.623    796145.21    875.32769    -7239.071     10.46264 
  294000    3158.6455    19142.917    800073.91    835.76343   -7212.1755    10.469585 
  295000    3214.0544    19090.664    814898.11    850.42438   -7184.3485    10.498241 
  296000    3229.9173    19136.172     803358.7    854.62164   -7206.9451    10.473275 
  297000    3086.7152    19185.532    791417.18      816.731   -7222.1031    10.446329 
  298000    3184.0525    19174.332    792694.03    842.48603   -7229.9442    10.452431 
  299000    3218.4962    19132.844    805720.88    851.59967   -7196.5155    10.475096 
  300000    3171.3272    19037.079    821576.25    839.11895   -7188.4414    10.527791 
Loop time of 115.748 on 8 procs for 50000 steps with 2048 atoms

Performance: 37.323 ns/day, 0.643 hours/ns, 431.974 timesteps/s
122.8% CPU use with 4 MPI tasks x 2 OpenMP threads

MPI task timing breakdown:
Section |  min time  |  avg time  |  max time  |%varavg| %total
---------------------------------------------------------------
Pair    | 70.869     | 71.863     | 72.695     |   8.6 | 62.09
Neigh   | 1.0534     | 1.0574     | 1.068      |   0.6 |  0.91
Comm    | 5.5198     | 6.3962     | 7.3975     |  29.8 |  5.53
Output  | 0.0014674  | 0.0022354  | 0.0025167  |   0.9 |  0.00
Modify  | 36.194     | 36.223     | 36.254     |   0.4 | 31.30
Other   |            | 0.2051     |            |       |  0.18

Nlocal:        512.000 ave         515 max         510 min
Histogram: 1 0 1 0 1 0 0 0 0 1
Nghost:        3179.75 ave        3195 max        3165 min
Histogram: 1 0 0 1 0 0 1 0 0 1
Neighs:        49895.8 ave       51323 max       48929 min
Histogram: 2 0 0 0 0 1 0 0 0 1

Total # of neighbors = 199583
Ave neighs/atom = 97.452637
Neighbor list builds = 1044
Dangerous builds = 0

unfix temp
unfix out_file_1


write_data after_${sim}_press_$P_$T.in
write_data after_cooling_press_$P_$T.in
write_data after_cooling_press_800000_$T.in
write_data after_cooling_press_800000_3200.in
System init for write_data ...
Last active /omp style is pair_style eam/alloy/omp
write_restart after_${sim}_press_$P_$T.lmp
write_restart after_cooling_press_$P_$T.lmp
write_restart after_cooling_press_800000_$T.lmp
write_restart after_cooling_press_800000_3200.lmp
System init for write_restart ...
Last active /omp style is pair_style eam/alloy/omp

next loopVar  #<----->
jump in.lmp ensemble

print """
Label pachadi solti, hos garam.
"""

Label pachadi solti, hos garam.

variable T equal 3300-${loopVar}*100  #<----->
variable T equal 3300-2*100  
# variable T equal 4550


reset_timestep 0
fix 1 all npt temp $T $T $(dt*100) iso $P $P $(dt*1000)
fix 1 all npt temp 3100 $T $(dt*100) iso $P $P $(dt*1000)
fix 1 all npt temp 3100 3100 $(dt*100) iso $P $P $(dt*1000)
fix 1 all npt temp 3100 3100 0.10000000000000000555 iso $P $P $(dt*1000)
fix 1 all npt temp 3100 3100 0.10000000000000000555 iso 800000 $P $(dt*1000)
fix 1 all npt temp 3100 3100 0.10000000000000000555 iso 800000 800000 $(dt*1000)
fix 1 all npt temp 3100 3100 0.10000000000000000555 iso 800000 800000 1
print """
<--------------------------------------------------------------------->
<------------------ Equilibrating at temperature $T ----------------->
<--------------------------------------------------------------------->
"""

<--------------------------------------------------------------------->
<------------------ Equilibrating at temperature 3100 ----------------->
<--------------------------------------------------------------------->

fix temp all print 1000 "$(step) $(temp) $(press) ${sys_press} $(vol) $(ke) $(pe) $(density)" file temp_${sim}.txt screen no title  "step temp press pressGiga vol ke pe density"
fix temp all print 1000 "$(step) $(temp) $(press) ${sys_press} $(vol) $(ke) $(pe) $(density)" file temp_cooling.txt screen no title  "step temp press pressGiga vol ke pe density"
run 250000
Last active /omp style is pair_style eam/alloy/omp
Per MPI rank memory allocation (min/avg/max) = 4.338 | 4.339 | 4.339 Mbytes
Step Temp Volume Press KinEng PotEng Density 
       0    3171.3272    19037.079    821576.25    839.11895   -7188.4414    10.527791 
    1000    2990.7808    19071.891    806194.96    791.34718   -7223.1528    10.508574 
    2000    3176.4923    19117.864    796036.89    840.48563   -7253.2887    10.483304 
    3000    3109.0108    19130.906    794502.48    822.63031   -7245.6423    10.476157 
    4000    3150.1668    19137.007    799969.89    833.52001   -7217.5482    10.472818 
    5000    3118.4974    19009.578    822284.14    825.14042   -7201.5722    10.543021 
    6000    3118.0142    19084.549    806168.48    825.01258   -7223.5508    10.501605 
    7000    3098.4365    19155.321    791130.08    819.83242   -7241.0763    10.462805 
    8000     3109.076    19124.774    796083.11    822.64758   -7245.8939    10.479516 
    9000    3154.8063    19102.729    804144.65    834.74761   -7221.9475     10.49161 
   10000    3129.2048     19087.83    807805.99    827.97356   -7212.5881      10.4998 
   11000    3069.1844     19115.67    796433.99    812.09244   -7247.1481    10.484508 
   12000    3154.0629    19170.959    789710.03     834.5509    -7245.357     10.45427 
   13000    3061.7465    19114.052    798830.65    810.12439   -7233.5918    10.485395 
   14000    3156.1572    19067.027     804740.7    835.10504   -7245.5631    10.511255 
   15000    3226.1299    19063.586     812993.4    853.61951   -7217.7873    10.513152 
   16000    3067.0098    19124.117    798194.57    811.51704    -7236.478    10.479877 
   17000    3028.4174    19157.139    796402.57    801.30566   -7213.0187    10.461812 
   18000    3128.7246    19030.346    814650.14     827.8465   -7226.7951    10.531516 
   19000    3038.3979    19017.524     820195.6    803.94646   -7197.8425    10.538616 
   20000     3002.789    19105.296    801056.61     794.5245   -7222.4633      10.4902 
   21000    3036.8692    19123.887    793187.51    803.54197   -7256.5508    10.480003 
   22000    3129.9008    19086.639    802567.59    828.15771   -7240.3644    10.500455 
   23000    3180.5902    19078.033    803497.83    841.56991   -7251.0298    10.505192 
   24000    3170.2165    19131.366    803275.98    838.82507   -7211.3974    10.475906 
   25000    3061.0524    19091.118    806698.82    809.94074    -7214.128    10.497991 
   26000     3051.342    19099.103    801058.91    807.37141   -7239.1985    10.493602 
   27000    3107.2531    19096.383    801775.65    822.16524   -7238.2634    10.495097 
   28000    3076.1195    19078.822    811970.42    813.92744    -7190.717    10.504757 
   29000    3158.9936    19087.433    806314.79    835.85554   -7226.9841    10.500018 
   30000    3103.9882    19172.144    787789.32    821.30136   -7249.8073    10.453624 
   31000    3080.6616    19132.561    791545.34    815.12924   -7266.1019    10.475252 
   32000    3081.9027    19135.283    800187.67    815.45763   -7211.8043    10.473761 
   33000    3195.8726    19075.919     811848.2    845.61356   -7211.1825    10.506355 
   34000    3139.1877    19054.216    807937.76      830.615   -7239.9272    10.518322 
   35000    3103.1939    19132.349    793541.58     821.0912   -7250.0733    10.475367 
   36000     3106.034    19147.127    794723.85    821.84267   -7238.2003    10.467282 
   37000    3085.9716    19043.072    813612.29    816.53425   -7216.7013    10.524477 
   38000    3110.2241    19094.222    802459.21    822.95136   -7236.6415    10.496285 
   39000    3060.3903     19129.89    792353.79    809.76554   -7254.0225    10.476714 
   40000     3049.272    19109.848    800688.31    806.82371   -7221.2015    10.487702 
   41000    3214.8485    19057.229    809894.84     850.6345   -7233.5623    10.516659 
   42000    3157.8094    19112.291    797885.68    835.54222   -7248.5458    10.486361 
   43000    3040.7402    19216.279    778961.46    804.56622    -7257.856    10.429615 
   44000    3063.4498    19109.269    804005.29    810.57509   -7216.3322     10.48802 
   45000    3129.1833    19065.442    815050.25    827.96787   -7197.4924    10.512129 
   46000    3164.7607    19044.073     810223.7    837.38148   -7238.6894    10.523924 
   47000    3027.3111    19100.328    802788.28    801.01293   -7221.4866    10.492929 
   48000    3130.3433    19160.887    793980.15    828.27481   -7229.2321    10.459766 
   49000    3045.6777    19069.739     806738.9    805.87266    -7227.184    10.509761 
   50000    3118.8555    19045.433    812659.13    825.23518   -7219.7159    10.523173 
   51000    2981.3729     19100.76    796362.99     788.8579   -7251.3876    10.492692 
   52000    3119.2714    19236.461     773645.1    825.34523   -7270.9483    10.418673 
   53000    3073.8458    19144.755    793825.28    813.32582   -7237.0216    10.468579 
   54000    3061.1735    19090.396    801185.32    809.97279   -7237.9935    10.498388 
   55000    3094.9809     19145.29    794441.24    818.91807   -7235.8174    10.468287 
   56000    3073.9601    19095.902    806815.83    813.35605   -7212.1057    10.495361 
   57000    3078.8608    19082.353    805576.84    814.65276   -7228.1449    10.502813 
   58000    3047.6644    19112.708    795968.64    806.39834   -7244.5292    10.486132 
   59000    3128.1499    19115.903    799903.77    827.69444   -7229.6225     10.48438 
   60000    3148.2538    19061.087    809783.81    833.01385   -7223.0157    10.514531 
   61000     3021.922    19074.535    801655.91    799.58702   -7251.0481    10.507118 
   62000    3029.9502    19171.486    786919.65    801.71124   -7253.8949    10.453983 
   63000    3075.9588    19144.239    793192.48    813.88492   -7239.9169    10.468861 
   64000     3123.376    19098.906    801262.18    826.43128   -7236.8576    10.493711 
   65000    3091.8591    19129.173    791597.55    818.09205   -7266.3573    10.477107 
   66000    3152.1819    19137.777    792486.11     834.0532   -7255.7522    10.472396 
   67000     3120.056    19147.385     791237.1    825.55284   -7248.3754    10.467142 
   68000    3020.3816    19165.739    791972.48    799.17943   -7225.4703    10.457118 
   69000    3059.0008    19031.179    820495.42    809.39788   -7191.4851    10.531055 
   70000    3163.9516    19067.335    813403.35    837.16741   -7207.0408    10.511085 
   71000     3155.273    19109.425    799962.67    834.87108   -7241.8801    10.487934 
   72000    3129.3197    19138.225    785315.75    828.00396    -7286.894    10.472151 
   73000    3122.4024    19096.703    801521.88    826.17367   -7234.8074    10.494921 
   74000    3091.1303    19047.679    816414.02    817.89922   -7196.7815    10.521932 
   75000    3206.7013    19154.349    791737.13     848.4788   -7251.2308    10.463336 
   76000    3066.1339    19184.682    781770.93    811.28529   -7266.1134    10.446792 
   77000    3135.1348    19162.579    794818.46    829.54262   -7221.5253    10.458842 
   78000     3033.522    19068.254    810893.51    802.65633   -7209.3698    10.510579 
   79000    3194.1562    19134.653    798364.02    845.15941   -7232.7273    10.474106 
   80000    3020.0255    19131.143    794643.17    799.08522   -7240.6402    10.476028 
   81000    3143.6652    19134.142    800105.19    831.79971   -7221.6956    10.474386 
   82000    3062.6726    19070.806    809048.58    810.36944   -7219.2489    10.509172 
   83000    3155.2097    19139.847    792526.53    834.85434   -7250.5796    10.471264 
   84000    3058.3366    19146.835    789953.71    809.22216   -7255.2088    10.467442 
   85000    3083.2683    19128.492    792294.14    815.81897   -7258.3822     10.47748 
   86000    3087.7792    19137.515    792878.66    817.01254   -7252.5724     10.47254 
   87000    3088.9152    19059.482    811358.39    817.31312   -7214.6582    10.515416 
   88000    3079.2187    19045.978    816235.94    814.74747   -7196.4846    10.522872 
   89000    3156.5135    19081.292    800116.65    835.19932   -7265.9994    10.503397 
   90000    3074.5786    19121.286    792041.52    813.51972   -7262.9704    10.481428 
   91000    3054.7056    19131.886    796173.55     808.2614   -7233.6956    10.475621 
   92000    3088.5428     19120.52     802222.5    817.21457   -7215.3447    10.481848 
   93000    3078.9534    19067.371     807983.6    814.67725   -7226.9115    10.511066 
   94000    3125.3254    19065.122    810572.94    826.94708   -7220.8532    10.512306 
   95000    3316.5055    19079.487    807358.22    877.53249   -7234.3393    10.504391 
   96000    3110.8183    19105.055    797747.23    823.10856   -7253.5522    10.490333 
   97000     3096.319    19200.008    779330.05    819.27211   -7270.6902    10.438453 
   98000    3143.1993    19193.219    782909.75    831.67644   -7259.8928    10.442145 
   99000    3099.7765    19099.423    798973.81    820.18696   -7245.3013    10.493426 
  100000    3045.9201    19075.669     809452.7     805.9368   -7216.4354    10.506493 
  101000    3064.8435    19072.932    807011.08    810.94386   -7227.3667    10.508001 
  102000    3057.0545    19161.275     789865.1    808.88292   -7245.2926    10.459554 
  103000    3097.4224    19198.102    781782.83    819.56408   -7262.7516     10.43949 
  104000     3108.484    19109.106    798869.18    822.49093   -7239.8985    10.488109 
  105000    3090.4081    19104.985    804399.49    817.70813   -7218.2211    10.490371 
  106000    3103.4661    19105.962    806249.11    821.16322   -7211.6012    10.489835 
  107000     3133.739     19104.99    802369.23    829.17329   -7230.9602    10.490369 
  108000     3113.058    19147.997    796727.68     823.7012   -7223.7692    10.466807 
  109000     3131.016    19227.909    775698.16    828.45279   -7268.5585    10.423306 
  110000    3075.4493    19085.149    801298.41    813.75009   -7244.5634    10.501274 
  111000    3193.7423    19083.425    807162.91    845.04989   -7224.5418    10.502223 
  112000    3092.3771    19126.923    796220.35    818.22911   -7241.1475    10.478339 
  113000    3135.1438    19138.221    791549.47      829.545   -7255.4083    10.472153 
  114000    3151.4752    19129.457    793397.92     833.8662   -7260.7879    10.476951 
  115000    3140.6913     19074.53    807578.03    831.01282   -7225.4442     10.50712 
  116000    3143.3991    19082.332     802583.5    831.72931   -7243.4849    10.502825 
  117000    3097.9283    19172.563    791086.69    819.69793   -7230.1211    10.453396 
  118000    3087.4946    19125.999    793478.29    816.93723   -7255.8628    10.478845 
  119000    3164.4883    19101.655    804581.29    837.30941   -7225.9149      10.4922 
  120000    3041.9686    19102.362    802029.71    804.89127   -7223.2937    10.491812 
  121000    3138.8087    19134.515     796607.3    830.51472   -7234.5031    10.474182 
  122000     3116.878      19030.4    816760.42    824.71193   -7212.4014    10.531486 
  123000    3141.4847    19116.362    802247.64    831.22276   -7221.5641    10.484128 
  124000    3146.6011    19171.894    784307.94    832.57655   -7269.6885    10.453761 
  125000    3145.7969    19150.979    794814.05    832.36376   -7232.2705    10.465177 
  126000    3110.3076    19077.024    807243.03    822.97345   -7228.8754    10.505747 
  127000    3125.6222    19079.918    811201.89    827.02561   -7203.4423    10.504153 
  128000    3046.7866    19138.941    792663.31    806.16608   -7245.8729     10.47176 
  129000    3091.9024    19162.342    790524.01     818.1035   -7241.5636    10.458971 
  130000    3060.4549    19139.109    791186.46    809.78264   -7253.2689    10.471667 
  131000    3152.4467    19077.871    807929.41    834.12326   -7225.1191     10.50528 
  132000    3104.9909    19030.074    818834.02    821.56667   -7202.1481    10.531666 
  133000    3054.4619    19088.242    799145.34    808.19692   -7252.1796    10.499573 
  134000    3060.6972    19167.521    790484.71    809.84675    -7241.937    10.456145 
  135000    3111.7025    19130.888    793020.84    823.34252   -7255.9873    10.476167 
  136000    3164.0168    19124.513     802705.9    837.18466   -7219.8499     10.47966 
  137000    3039.8064    19054.873    808207.27    804.31914   -7235.9494     10.51796 
  138000    3093.7749    19142.869    789140.02    818.59896   -7265.6263    10.469611 
  139000    3165.6347    19173.398    784601.19    837.61276   -7268.2971     10.45294 
  140000    3167.4218    19109.117    803141.88    838.08562   -7219.4194    10.488103 
  141000    3168.9307    19043.635    816429.15    838.48486   -7204.8842    10.524167 
  142000    3060.7789    19129.667     793317.2    809.86838   -7254.5757    10.476836 
  143000    3120.8557    19129.123    799281.55    825.76443   -7222.8785    10.477134 
  144000    3107.3971    19086.313    805229.22    822.20333   -7229.6437    10.500634 
  145000     2992.606    19106.395    800741.25    791.83013   -7228.5371    10.489597 
  146000    3102.1325    19142.117    791859.38    820.81034   -7253.4424    10.470022 
  147000    3090.9804    19118.872    797152.51    817.85955   -7244.3574    10.482752 
  148000    3128.4336    19076.034    809780.99     827.7695   -7212.9202    10.506292 
  149000    3038.9884    19117.856    802127.94     804.1027   -7210.5448    10.483309 
  150000    3127.2771    19170.077    784128.09    827.46351    -7273.704    10.454751 
  151000    3106.6988    19114.788    801110.48    822.01856   -7223.5639    10.484992 
  152000    3187.4126    19078.819    809717.29    843.37508   -7218.2543    10.504758 
  153000    3057.5583    19140.891    792786.94    809.01621   -7248.5887    10.470692 
  154000    3080.3205    19169.979    786555.73    815.03899   -7251.3881    10.454805 
  155000    3103.4356    19102.175     793422.1    821.15515   -7272.7855    10.491915 
  156000    3097.8932    19101.587    800902.48    819.68865   -7232.4009    10.492237 
  157000     3081.665    19042.337    813705.69    815.39474   -7215.3713    10.524884 
  158000    3144.7632    19167.226    794757.05    832.09024   -7220.8382    10.456306 
  159000    3090.2144    19156.963    788165.81    817.65688   -7257.4565    10.461908 
  160000    3113.9098    19123.628    802176.81    823.92657   -7210.3508    10.480144 
  161000    3147.2206    19050.028    809557.97    832.74046   -7230.5208    10.520635 
  162000    3025.5853    19102.993    800679.92     800.5563   -7230.1815    10.491465 
  163000     3068.924    19115.418    797910.87    812.02353   -7242.7531    10.484646 
  164000    3152.9561    19181.089    783965.01    834.25805   -7266.6835    10.448749 
  165000         3168    19144.535    793819.39    838.23861   -7243.6673      10.4687 
  166000    3117.0858    19080.037    810187.07    824.76692   -7211.3923    10.504088 
  167000    3054.2168    19031.698    817945.43    808.13207   -7198.1392    10.530767 
  168000    3155.9707    19145.574    792636.17    835.05569   -7251.1808    10.468132 
  169000    3138.3818     19153.48    786502.37    830.40175   -7277.2711     10.46381 
  170000    3074.0606    19121.011    797899.72    813.38266   -7234.1196    10.481579 
  171000    3083.5623    19081.382    809194.31    815.89677   -7213.2824    10.503348 
  172000     3015.741    19039.743    808854.23    797.95155   -7234.1277    10.526318 
  173000    3139.3971    19143.231    795400.47    830.67039   -7237.0871    10.469413 
  174000    3080.6734    19202.383    778885.74    815.13237   -7267.9981    10.437162 
  175000    3070.2636    19139.351    795750.89    812.37798   -7235.2062    10.471535 
  176000    3037.9338     19080.27    804229.71    803.82367   -7228.3404     10.50396 
  177000    3106.9586    19124.718    799010.42    822.08731   -7233.3714    10.479547 
  178000    3248.7328    19143.412    797771.26    859.60014   -7228.6027    10.469314 
  179000    3112.1891    19158.328    791946.34    823.47128   -7242.3351    10.461163 
  180000    3062.2229    19202.452    774996.91    810.25044    -7292.981    10.437125 
  181000    3054.6355    19093.285    799447.08    808.24286   -7247.8501      10.4968 
  182000    3049.9124    19052.671    814359.16    806.99315   -7203.3734    10.519175 
  183000    3077.4487    19110.867    801486.31    814.27913   -7224.5021    10.487142 
  184000    3075.4229    19134.073    791385.43     813.7431    -7252.659    10.474424 
  185000    3115.5382    19098.382    804282.35    824.35744    -7225.948    10.493998 
  186000     3077.376    19034.596    811311.43    814.25989   -7233.9737    10.529164 
  187000    3096.9329    19065.597    808196.99    819.43456      -7225.9    10.512044 
  188000    3058.9054    19129.863    791872.23    809.37266   -7250.4445    10.476729 
  189000    3049.4977    19142.587    789835.17    806.88342   -7255.1609    10.469765 
  190000     3090.536    19117.592    801848.94    817.74197    -7223.676    10.483454 
  191000    3099.0709    19126.575    799302.11    820.00027   -7226.2295     10.47853 
  192000    3150.5308    19158.947    793153.44    833.61632   -7236.8173    10.460825 
  193000    3136.9389    19131.926    798351.05    830.01997   -7230.3282    10.475599 
  194000    3025.7542    19002.034     822983.9      800.601   -7193.9585    10.547207 
  195000    3114.9229    19099.084    809255.08    824.19463   -7193.4918    10.493612 
  196000     3103.072    19156.581     792059.3    821.05893   -7234.9718    10.462117 
  197000    3132.0571    19150.391    788043.17    828.72826   -7264.7192    10.465498 
  198000    3098.3673    19116.044    800377.89     819.8141   -7234.5426    10.484303 
  199000    3066.5249    19072.691    808440.36    811.38874   -7216.8202    10.508134 
  200000    3107.8291    19130.151    796016.21    822.31766   -7238.6023    10.476571 
  201000    3025.4247     19107.33    799933.38    800.51382   -7233.1108    10.489084 
  202000    3181.8075    19119.188    800876.66    841.89201   -7234.2362    10.482578 
  203000    3120.6826    19072.972     812087.6    825.71861   -7202.6139    10.507979 
  204000    3087.4248    19070.793    809108.21    816.91876   -7221.5749     10.50918 
  205000    3195.1007    19112.675    795258.41    845.40932   -7266.2975     10.48615 
  206000    3101.5309    19171.457     784505.1    820.65116   -7266.7678    10.453998 
  207000    3090.8434    19117.628    796866.44    817.82331   -7247.0741    10.483434 
  208000    3077.3221    19094.925    807774.71    814.24563    -7202.618    10.495898 
  209000     3001.736    19064.809    805556.01     794.2459   -7232.2662    10.512478 
  210000    3029.4419    19120.082    793063.66    801.57675   -7256.8744    10.482088 
  211000    3025.3161    19170.718    785030.31    800.48509   -7259.1446    10.454402 
  212000    3127.3364    19113.855    797048.37    827.47919   -7246.7001    10.485503 
  213000    3038.7615    19066.514    814847.53    804.04266   -7193.6809    10.511538 
  214000    3205.3281    19148.807    792158.96    848.11545   -7248.6319    10.466364 
  215000    3115.9033    19087.967    800426.46    824.45404   -7252.2747    10.499724 
  216000    3113.9153    19075.315    806899.81    823.92803   -7226.2445    10.506688 
  217000    3112.6921    19081.842    806023.86    823.60438   -7224.9161    10.503094 
  218000    2996.0303    19151.694    784353.29     792.7362   -7272.0084    10.464786 
  219000      3080.88    19150.749     789130.1    815.18704   -7256.6924    10.465303 
  220000    3087.4064    19127.497    797786.54    816.91388   -7232.4613    10.478025 
  221000    3186.8476    19122.653    800637.01     843.2256   -7229.0262    10.480679 
  222000    3076.9809    19073.126    811290.65    814.15535   -7207.6282    10.507894 
  223000    3072.8608    19053.723    811742.65     813.0652   -7223.6518    10.518595 
  224000    2982.5131    19136.627    792908.51    789.15959   -7238.1271    10.473025 
  225000    3110.5504     19129.85    793123.01     823.0377   -7259.2979    10.476736 
  226000    3171.2709    19141.878    798576.21    839.10405   -7227.0596    10.470153 
  227000    3067.0049    19089.402     809049.3    811.51575   -7204.7726    10.498935 
  228000     3104.994    19122.752    792955.32     821.5675   -7263.4305    10.480624 
  229000    3113.3127      19173.9    782484.41    823.76857   -7276.0664    10.452667 
  230000    3081.4148    19087.477    802366.28    815.32855   -7237.1129    10.499994 
  231000    3129.8428    19053.798    815465.44    828.14237    -7201.397    10.518553 
  232000    3102.8329     19069.73    809413.44    820.99567   -7220.9849    10.509765 
  233000    3131.3352    19100.068    798052.97    828.53726   -7254.3965    10.493072 
  234000      3121.23    19152.104    795963.54    825.86346   -7227.6292    10.464563 
  235000    3049.4762    19055.475    807804.61    806.87772   -7233.6271    10.517627 
  236000    3165.0602    19092.139    803499.75    837.46073   -7238.7727    10.497429 
  237000    3141.3777    19174.245    786756.03    831.19446   -7257.3782    10.452478 
  238000    3014.7172    19093.579    800443.11    797.68064   -7239.4964    10.496638 
  239000    3247.2265    19072.576    810972.49    859.20157   -7221.7402    10.508197 
  240000    3122.8861    19102.646    800815.34    826.30165   -7238.4028    10.491656 
  241000    3080.1053    19193.792    778820.71    814.98205   -7279.6933    10.441834 
  242000    3029.2138    19202.883    775597.21    801.51639   -7281.2111     10.43689 
  243000    3131.4831    19086.853    805083.47    828.57639   -7227.9771    10.500337 
  244000    3106.8251     19045.01     813294.8    822.05199   -7215.9814    10.523407 
  245000     3131.134    19116.127    802186.14    828.48402   -7220.7693    10.484257 
  246000    3066.2549     19153.87    793876.27    811.31731   -7228.7149    10.463597 
  247000    3054.3544    19088.764    801684.06    808.16849   -7237.9207    10.499286 
  248000    3113.0027    19084.124    806831.21    823.68656   -7217.0009    10.501839 
  249000    3149.1029    19157.405    791422.34    833.23851   -7242.7296    10.461667 
  250000    2993.8332    19119.746    797029.41    792.15483    -7238.307    10.482273 
Loop time of 560.327 on 8 procs for 250000 steps with 2048 atoms

Performance: 38.549 ns/day, 0.623 hours/ns, 446.168 timesteps/s
125.5% CPU use with 4 MPI tasks x 2 OpenMP threads

MPI task timing breakdown:
Section |  min time  |  avg time  |  max time  |%varavg| %total
---------------------------------------------------------------
Pair    | 343.9      | 347.15     | 350.66     |  14.6 | 61.95
Neigh   | 5.02       | 5.0589     | 5.094      |   1.4 |  0.90
Comm    | 24.441     | 28.149     | 31.432     |  52.7 |  5.02
Output  | 0.0061357  | 0.011413   | 0.013177   |   2.9 |  0.00
Modify  | 178.9      | 179        | 179.16     |   0.8 | 31.95
Other   |            | 0.96       |            |       |  0.17

Nlocal:        512.000 ave         517 max         506 min
Histogram: 1 0 0 1 0 0 0 0 1 1
Nghost:        3156.00 ave        3158 max        3153 min
Histogram: 1 0 0 0 1 0 0 0 0 2
Neighs:        49747.2 ave       51606 max       48181 min
Histogram: 1 0 0 1 0 1 0 0 0 1

Total # of neighbors = 198989
Ave neighs/atom = 97.162598
Neighbor list builds = 5079
Dangerous builds = 0


# fix 132 all momentum 100 linear 1 1 1 angular
fix out_file_1 all print 1000 "$(step) $(temp) $(press) ${sys_press} $(vol) $(ke) $(pe) $(density)" file one_phase_${sim}_press_$P_$T_.txt screen no title  "step temp press pressGiga vol ke pe density"
fix out_file_1 all print 1000 "$(step) $(temp) $(press) ${sys_press} $(vol) $(ke) $(pe) $(density)" file one_phase_cooling_press_$P_$T_.txt screen no title  "step temp press pressGiga vol ke pe density"
fix out_file_1 all print 1000 "$(step) $(temp) $(press) ${sys_press} $(vol) $(ke) $(pe) $(density)" file one_phase_cooling_press_800000_$T_.txt screen no title  "step temp press pressGiga vol ke pe density"
fix out_file_1 all print 1000 "$(step) $(temp) $(press) ${sys_press} $(vol) $(ke) $(pe) $(density)" file one_phase_cooling_press_800000_3100_.txt screen no title  "step temp press pressGiga vol ke pe density"

# dump 3 all custom 1000 traj_npt_new.lammpstrj id type x y z
run 50000
Last active /omp style is pair_style eam/alloy/omp
Per MPI rank memory allocation (min/avg/max) = 4.338 | 4.339 | 4.339 Mbytes
Step Temp Volume Press KinEng PotEng Density 
  250000    2993.8332    19119.746    797029.41    792.15483    -7238.307    10.482273 
  251000    3121.6045     19123.67    800356.24    825.96255   -7220.4719    10.480122 
  252000    3033.8906    19027.011    822038.42    802.75385   -7179.5007    10.533362 
  253000    3079.9405    19156.297    800095.55    814.93845    -7194.105    10.462272 
  254000    3075.3754    19132.552    794563.05    813.73055    -7245.825    10.475256 
  255000    3080.1976    19136.436    795741.54    815.00647   -7233.6556     10.47313 
  256000    3092.2074    19161.542    780899.61    818.18422   -7289.1288    10.459408 
  257000    3007.7254    19122.875    798766.55    795.83066   -7225.8846    10.480557 
  258000    3105.5126    19059.304    813159.15     821.7047   -7205.5617    10.515514 
  259000    3158.5056    19077.494    808211.23    835.72643   -7221.5064    10.505488 
  260000    3012.8973    19116.697       794425    797.19913   -7255.1498    10.483944 
  261000    3130.3059    19149.324    789645.25    828.26491   -7262.3918    10.466082 
  262000     3162.718    19104.214    802238.97    836.84101   -7235.3195    10.490795 
  263000    3136.1887    19052.967    811410.59    829.82148   -7221.3356    10.519012 
  264000    3189.1538    19136.713    792614.05    843.83581   -7262.2031    10.472979 
  265000    3047.1425    19143.343    791127.17    806.26023   -7252.4375    10.469351 
  266000    3159.2776     19117.84    801639.98    835.93069   -7223.2699    10.483317 
  267000    2947.7618    19042.364    814323.54    779.96456   -7200.2795    10.524869 
  268000    3136.6528     19146.82    787971.76    829.94428   -7267.3397     10.46745 
  269000    3023.1469    19216.317    776376.76    799.91112    -7270.738    10.429594 
  270000    3068.6338    19056.969    807018.45    811.94674   -7244.3753    10.516803 
  271000    3028.1848    19035.618    816165.03    801.24413   -7204.2887    10.528599 
  272000    3085.3739     19098.35    805183.92     816.3761    -7211.579    10.494016 
  273000    3042.5389    19123.119    795793.47    805.04214   -7245.3862    10.480424 
  274000    3037.3008    19130.527    795103.57    803.65617   -7238.3691    10.476365 
  275000    3078.7832    19116.735    801225.96    814.63224    -7223.273    10.483924 
  276000    3185.1243    19122.577    800231.39    842.76961   -7228.5629     10.48072 
  277000    3136.1187    19073.731     814689.8    829.80295   -7193.1678    10.507561 
  278000    3089.6531    19094.379    802325.82    817.50836   -7232.3316    10.496198 
  279000    3072.8731     19168.99    785713.93    813.06845   -7255.4207    10.455344 
  280000    3106.8289    19139.347    792988.73    822.05301   -7250.3551    10.471537 
  281000    3203.7296     19109.68    806185.13    847.69248   -7211.9534    10.487794 
  282000    3122.9499    19093.358    807703.95    826.31853   -7211.2776    10.496759 
  283000    3020.8619    19093.783     800899.8     799.3065   -7238.8388    10.496526 
  284000    3096.8098    19168.694    785202.62      819.402   -7270.9846    10.455505 
  285000    3082.5028    19110.617    796358.05    815.61643   -7253.5181     10.48728 
  286000    3038.3017    19078.257    802024.68      803.921   -7240.6366    10.505068 
  287000    3147.8053    19086.483    805930.81    832.89517   -7230.4336    10.500541 
  288000    3169.6226    19090.741    799297.53    838.66793    -7257.184    10.498199 
  289000      3130.48    19241.067    773946.25    828.31098   -7269.8241    10.416178 
  290000    3116.0634    19158.863    791765.82    824.49641   -7237.6091     10.46087 
  291000    3172.6015    19065.633    809849.52    839.45613   -7223.5755    10.512024 
  292000    3073.6112    19070.151    805182.44    813.26375   -7238.6192    10.509533 
  293000    3156.0667    19123.587    792070.59    835.08111   -7269.2379    10.480167 
  294000    3051.0345    19115.573    797046.38    807.29005   -7243.9237    10.484561 
  295000    3206.0941    19083.943    805400.12    848.31812   -7234.7396    10.501938 
  296000    3110.9259    19106.496    805583.97    823.13705   -7209.7157    10.489542 
  297000    3124.7962    19050.224    809863.66    826.80705    -7230.874    10.520526 
  298000    3052.0075    19179.306    788676.78    807.54751   -7236.1195     10.44972 
  299000    2976.5812    19211.836    777357.05    787.59005     -7268.38    10.432027 
  300000    3151.8438    19071.216     804419.8    833.96374   -7245.8561    10.508946 
Loop time of 113.374 on 8 procs for 50000 steps with 2048 atoms

Performance: 38.104 ns/day, 0.630 hours/ns, 441.020 timesteps/s
125.9% CPU use with 4 MPI tasks x 2 OpenMP threads

MPI task timing breakdown:
Section |  min time  |  avg time  |  max time  |%varavg| %total
---------------------------------------------------------------
Pair    | 69.741     | 70.326     | 71.048     |   6.4 | 62.03
Neigh   | 1.02       | 1.032      | 1.0425     |   0.9 |  0.91
Comm    | 4.6135     | 5.3833     | 5.981      |  24.0 |  4.75
Output  | 0.0011643  | 0.0018104  | 0.0020275  |   0.9 |  0.00
Modify  | 36.412     | 36.434     | 36.474     |   0.4 | 32.14
Other   |            | 0.1968     |            |       |  0.17

Nlocal:        512.000 ave         515 max         510 min
Histogram: 1 0 1 0 1 0 0 0 0 1
Nghost:        3172.75 ave        3181 max        3162 min
Histogram: 1 0 0 1 0 0 0 0 0 2
Neighs:        49859.2 ave       51082 max       48936 min
Histogram: 2 0 0 0 0 0 0 1 0 1

Total # of neighbors = 199437
Ave neighs/atom = 97.381348
Neighbor list builds = 1021
Dangerous builds = 0

unfix temp
unfix out_file_1


write_data after_${sim}_press_$P_$T.in
write_data after_cooling_press_$P_$T.in
write_data after_cooling_press_800000_$T.in
write_data after_cooling_press_800000_3100.in
System init for write_data ...
Last active /omp style is pair_style eam/alloy/omp
write_restart after_${sim}_press_$P_$T.lmp
write_restart after_cooling_press_$P_$T.lmp
write_restart after_cooling_press_800000_$T.lmp
write_restart after_cooling_press_800000_3100.lmp
System init for write_restart ...
Last active /omp style is pair_style eam/alloy/omp

next loopVar  #<----->
jump in.lmp ensemble

print """
Label pachadi solti, hos garam.
"""

Label pachadi solti, hos garam.

variable T equal 3300-${loopVar}*100  #<----->
variable T equal 3300-3*100  
# variable T equal 4550


reset_timestep 0
fix 1 all npt temp $T $T $(dt*100) iso $P $P $(dt*1000)
fix 1 all npt temp 3000 $T $(dt*100) iso $P $P $(dt*1000)
fix 1 all npt temp 3000 3000 $(dt*100) iso $P $P $(dt*1000)
fix 1 all npt temp 3000 3000 0.10000000000000000555 iso $P $P $(dt*1000)
fix 1 all npt temp 3000 3000 0.10000000000000000555 iso 800000 $P $(dt*1000)
fix 1 all npt temp 3000 3000 0.10000000000000000555 iso 800000 800000 $(dt*1000)
fix 1 all npt temp 3000 3000 0.10000000000000000555 iso 800000 800000 1
print """
<--------------------------------------------------------------------->
<------------------ Equilibrating at temperature $T ----------------->
<--------------------------------------------------------------------->
"""

<--------------------------------------------------------------------->
<------------------ Equilibrating at temperature 3000 ----------------->
<--------------------------------------------------------------------->

fix temp all print 1000 "$(step) $(temp) $(press) ${sys_press} $(vol) $(ke) $(pe) $(density)" file temp_${sim}.txt screen no title  "step temp press pressGiga vol ke pe density"
fix temp all print 1000 "$(step) $(temp) $(press) ${sys_press} $(vol) $(ke) $(pe) $(density)" file temp_cooling.txt screen no title  "step temp press pressGiga vol ke pe density"
run 250000
Last active /omp style is pair_style eam/alloy/omp
Per MPI rank memory allocation (min/avg/max) = 4.338 | 4.339 | 4.339 Mbytes
Step Temp Volume Press KinEng PotEng Density 
       0    3151.8438    19071.216     804419.8    833.96374   -7245.8561    10.508946 
    1000    2915.4658    19039.738    802184.04    771.41917   -7261.5659    10.526321 
    2000    2946.1419    19114.729    790234.36    779.53594   -7272.4695    10.485024 
    3000    3014.5684    19124.106    788059.45    797.64128   -7278.6417    10.479883 
    4000    2872.0364    19066.804    801640.35    759.92797   -7240.6436    10.511378 
    5000    2970.6235    19031.392    813232.82    786.01366   -7222.5474    10.530937 
    6000    3032.5326    19062.676    811576.48    802.39452    -7205.061    10.513654 
    7000    3050.8399    19079.621    798153.19    807.23856   -7264.9155    10.504317 
    8000    2964.9329    19114.205    790887.07    784.50795   -7265.2981    10.485311 
    9000     3001.338    19085.261    794995.14    794.14057   -7275.3092    10.501212 
   10000    3019.6275    19008.343    814242.01    798.97989   -7237.2964    10.543706 
   11000     3081.914    19008.861    820251.95    815.46062   -7202.6503    10.543419 
   12000    3082.0148    19073.492    800555.79    815.48729   -7261.1946    10.507692 
   13000    3099.3287    19104.435    790224.43    820.06848   -7286.5422    10.490673 
   14000    3049.6054    19116.532     787865.8    806.91192   -7287.7357    10.484035 
   15000    2985.5616    19093.652    797258.96    789.96622   -7254.4908    10.496598 
   16000    3068.1823    19108.383    793928.24    811.82729   -7264.9559    10.488506 
   17000    3045.1174    19086.751    799710.03     805.7244   -7252.3285    10.500393 
   18000    3019.8066    19061.031    798057.75    799.02728   -7272.9375    10.514562 
   19000    3072.6894    19090.867    794777.19    813.01984   -7275.0454    10.498129 
   20000    3055.5052    19038.168    805013.46    808.47298   -7264.6204    10.527189 
   21000    2945.0954    19002.646     811293.3    779.25903   -7247.1136    10.546868 
   22000    3154.3387    19076.428    801907.69    834.62388   -7259.3433    10.506075 
   23000    2901.3945    19072.519    799110.32    767.69599    -7257.836    10.508229 
   24000    2954.2852    19095.979    787229.89    781.69062   -7298.8118    10.495319 
   25000    3011.8178    19064.863    798020.07    796.91348   -7275.9448    10.512449 
   26000    2976.3254    19057.114    809777.53    787.52236   -7217.0734    10.516723 
   27000    3010.5163    19010.931    818416.93    796.56911   -7211.3688    10.542271 
   28000    3160.6498    19095.555    801074.08    836.29378   -7242.5881    10.495552 
   29000     2952.294    19080.046    802005.97    781.16376   -7237.4132    10.504083 
   30000    2952.0864    19073.447    798386.59    781.10883    -7256.339    10.507717 
   31000    2991.7749    19093.008     793723.8    791.61021   -7275.4439    10.496952 
   32000    2991.9579    19054.703    800189.65    791.65864   -7265.7418    10.518053 
   33000    2991.3117    19018.626    815230.11    791.48768   -7222.2068    10.538005 
   34000    3113.7817    19019.846     808847.9    823.89267   -7263.7351    10.537329 
   35000    3020.1972    19044.468    802627.15    799.13065   -7269.4259    10.523706 
   36000    2986.2319      19066.4    793745.86    790.14358   -7294.1974    10.511601 
   37000    2928.5158    19116.218    789316.17    774.87215   -7267.3185    10.484207 
   38000    3042.5419    19097.817    799740.52    805.04294   -7238.0723    10.494309 
   39000    2995.8372    18990.746    814975.96    792.68508   -7243.1454    10.553476 
   40000    2975.9383    19059.831     807918.7    787.41992   -7225.6296    10.515223 
   41000    2951.9486    19027.515    810537.93    781.07235    -7233.344    10.533083 
   42000     3090.081    19061.732    797458.49    817.62157   -7283.5144    10.514175 
   43000    2927.2477    19085.513    800852.97    774.53661   -7241.2816    10.501074 
   44000    2978.7557    19159.746    780926.74    788.16541   -7282.4629    10.460388 
   45000    3059.5232     19119.72    785755.42    809.53613   -7298.9187    10.482287 
   46000     2961.225    19087.795    802264.45    783.52686   -7230.4146    10.499819 
   47000     2980.689    19034.407    802945.19    788.67695   -7266.2494    10.529269 
   48000    3006.3812    19041.915    802990.92    795.47499   -7263.8263    10.525117 
   49000    3023.4191    19044.203    802817.07    799.98315   -7265.0261    10.523853 
   50000    2978.7666    19111.316    802285.42    788.16829   -7209.1328    10.486896 
   51000    2959.0052     19090.16    796170.64     782.9395      -7259.7    10.498518 
   52000    3078.6518    19085.711    799071.33    814.59745   -7257.5499    10.500965 
   53000    2954.4931    18998.159    812875.81    781.74562   -7243.6442    10.549359 
   54000    3006.3328    19043.237    811096.08    795.46219   -7224.0608    10.524386 
   55000    2989.5841    19059.719    799567.88    791.03056   -7267.7174    10.515285 
   56000    3123.7093    19141.786    784258.87    826.51949   -7293.2216    10.470203 
   57000    2950.9231     19085.91    793917.47    780.80102   -7270.3987    10.500856 
   58000     3011.706    19028.985    807120.88    796.88391   -7253.4707    10.532269 
   59000     3038.458    18974.819    817395.21    803.96236   -7243.2848    10.562335 
   60000    2988.1082    19010.914    812647.92    790.64002   -7238.1279    10.542281 
   61000    2966.2026     19045.96    803177.81    784.84391   -7260.3847    10.522882 
   62000    2988.5001    19057.419    800336.25    790.74373   -7267.3589    10.516554 
   63000    2980.7557     19023.03    813135.88     788.6946   -7232.5662    10.535566 
   64000    3101.9165    19056.546    809292.98    820.75319    -7228.937    10.517036 
   65000    2982.8541    19082.642    795712.43    789.24983   -7272.8076    10.502654 
   66000    3031.4177    19141.678     784888.2    802.09953   -7277.8743    10.470262 
   67000    2971.1211    19038.529     803337.7    786.14532    -7263.751    10.526989 
   68000    3071.0207    18996.568    815476.55    812.57832   -7236.9064    10.550242 
   69000    3064.0172    19051.011    805942.01    810.72522   -7245.5813    10.520092 
   70000    3015.0915    19087.572    795524.98    797.77971   -7273.0492    10.499941 
   71000    3045.3663    19097.958    796327.62    805.79027   -7258.1503    10.494231 
   72000    3022.4577    19067.906    804066.27    799.72875    -7239.896    10.510771 
   73000    2965.9561    18989.247    820599.07    784.77869   -7213.5813    10.554309 
   74000    2917.0587    19091.099    792329.08    771.84065     -7271.96    10.498001 
   75000    3048.3546    19111.243    791804.35    806.58097   -7272.1005    10.486936 
   76000    2959.8215    19109.993    791387.37    783.15551    -7265.911    10.487622 
   77000    3032.3206    19115.233    791234.14    802.33843   -7275.8164    10.484747 
   78000    2959.4852    19107.917    789495.25    783.06653   -7282.9512    10.488762 
   79000    2932.3439    19020.256    815425.94    775.88504   -7211.3497    10.537103 
   80000     3006.525    19035.639    807169.48    795.51303   -7246.4121    10.528587 
   81000    2970.7515    19057.267    800029.85    786.04753   -7262.9071    10.516639 
   82000    3088.6786    19144.685    790527.92    817.25052   -7256.1998    10.468618 
   83000    2925.2093    19102.675    792588.22    773.99727   -7262.2711     10.49164 
   84000    3021.3429    19087.166    795444.53     799.4338   -7265.9368    10.500165 
   85000    2927.5918    18994.529       814896    774.62766   -7238.1055    10.551374 
   86000    2897.0465     19000.69    821486.57    766.54551   -7190.2666    10.547953 
   87000    2994.7076     19074.53    801432.85    792.38619   -7247.7082    10.507121 
   88000     3017.736    19104.757    792401.75    798.47941   -7278.1199    10.490497 
   89000    3010.0592    19075.577    801313.43    796.44818   -7241.8384    10.506544 
   90000     2915.465    19010.183     812908.2    771.41898    -7233.936    10.542686 
   91000    2932.7504    19063.878    805556.22    775.99261   -7230.7673    10.512991 
   92000     2993.108    19069.697    799497.11    791.96296   -7259.1132    10.509784 
   93000     3015.279    19074.138    799426.75     797.8293   -7255.9933    10.507337 
   94000    2994.2226    19090.512    803866.81    792.25788    -7222.198    10.498324 
   95000    3138.4934    18965.438     822576.6    830.43128   -7235.6336    10.567559 
   96000    3007.2155    19079.126    805013.16    795.69573   -7225.3003     10.50459 
   97000     2957.468    19092.866    798536.33    782.53276   -7249.1942     10.49703 
   98000    2951.4471    19098.383    792063.43    780.93966   -7271.6972    10.493997 
   99000    2951.7755    19100.719    795757.08    781.02655   -7256.2933    10.492714 
  100000    2974.0777    19088.538    799363.28    786.92764   -7244.2299     10.49941 
  101000    2890.8345    19051.226    802643.43    764.90185   -7254.0649    10.519973 
  102000    2948.0136    19120.779    790408.39    780.03117   -7263.1612    10.481706 
  103000    2942.3406    19134.223    783396.65    778.53012   -7293.6256    10.474341 
  104000    3028.7974    19038.853    805076.61    801.40621   -7258.3145     10.52681 
  105000    3039.5181    19078.313    799299.34    804.24286    -7256.015    10.505037 
  106000    3052.5589    19066.787     798364.5     807.6934   -7269.9297    10.511388 
  107000    3041.3856    19131.629    789009.93    804.73699   -7273.4722    10.475762 
  108000    2943.7533    19083.637    798043.62    778.90392   -7250.6859    10.502107 
  109000    3060.2293    19056.527    808415.57    809.72295   -7235.1745    10.517047 
  110000    3003.3998    19025.564    808000.65    794.68612   -7250.6708    10.534163 
  111000    3111.2796    19087.983    802468.22    823.23064   -7238.8755    10.499715 
  112000    2973.7446    19064.303    802755.02    786.83949   -7247.7863    10.512757 
  113000     2978.797    19045.951    805669.05    788.17634   -7248.1821    10.522887 
  114000    3038.7377    18995.402    821959.14    804.03637   -7208.6503    10.550889 
  115000    3046.4599    19081.567     802711.2    806.07963   -7237.4777    10.503245 
  116000    2985.6491    19060.354    798097.63    789.98937   -7271.0726    10.514935 
  117000     3041.827    19057.864    803433.49    804.85379    -7254.238    10.516309 
  118000    2996.1723    19065.459    806418.53    792.77376   -7226.1212    10.512119 
  119000    3001.6801    19096.727     795387.1    794.23111   -7265.0246    10.494908 
  120000    2946.4032    19067.538    793576.89    779.60507   -7283.9584    10.510973 
  121000    3017.9972    19080.093    794825.92    798.54854   -7277.3817    10.504057 
  122000    2962.0976    19049.426    801933.13    783.75774   -7262.3576    10.520967 
  123000    3088.4665    19072.594    801276.17    817.19438   -7256.1958    10.508187 
  124000    3024.1427    19088.952     795336.5    800.17459   -7268.5515    10.499182 
  125000    2926.9528     19120.72    785822.47    774.45859   -7285.4429    10.481739 
  126000    3040.9705    19120.787    788391.41    804.62715   -7278.2758    10.481702 
  127000    2948.2026     19019.71    806805.91    780.08119   -7260.1213    10.537405 
  128000    2948.0949    19002.225    821027.84     780.0527   -7197.4903    10.547101 
  129000    2965.9535     19030.72    811411.61      784.778    -7229.357    10.531309 
  130000    3005.2907    19078.993     799111.8    795.18645   -7255.7937    10.504663 
  131000     2950.401     19092.44    791258.29    780.66288   -7279.0666    10.497264 
  132000    3061.4025    19128.948    790053.32    810.03338   -7265.9547     10.47723 
  133000     2929.926    19059.874    799814.46    775.24527   -7260.8567      10.5152 
  134000    2874.9134    19035.046    808117.35    760.68919   -7235.6442    10.528915 
[...]
  120000     2772.909    19017.993    787108.98    733.69928   -7345.6995    10.538356 
  121000     2649.372    19011.241    786315.62    701.01195   -7348.3205    10.542099 
  122000    2718.0181    19029.353    780627.59    719.17541    -7365.832    10.532065 
  123000    2736.4551    19036.626    785470.91    724.05374   -7336.8935    10.528041 
  124000    2732.6172    18989.375    793019.26    723.03827   -7334.8391    10.554238 
  125000    2701.6513     18963.99    796596.59    714.84482   -7338.7283    10.568366 
  126000     2686.682    18982.438    798118.49    710.88401   -7314.2659    10.558095 
  127000    2735.0212    18937.876    801163.02    723.67436   -7334.7727    10.582939 
  128000    2689.4452    18893.439    806428.08    711.61514   -7344.0093     10.60783 
  129000    2720.7208    18919.521    810563.36    719.89052   -7301.6052    10.593206 
  130000    2645.6026     18880.65    815541.27    700.01458   -7301.5866    10.615015 
  131000    2628.1337    18913.639    813026.46    695.39239   -7283.9427    10.596501 
  132000    2665.1209    18942.005    805282.53    705.17904     -7309.29    10.580632 
  133000    2769.5235    18964.167    799524.13     732.8035   -7321.5725    10.568267 
  134000    2685.6513    18936.341    802435.54    710.61129   -7322.7045    10.583797 
  135000    2743.7094    18908.533    809436.56     725.9732   -7316.9345    10.599362 
  136000    2662.9753    18933.807     812278.1    704.61133   -7279.0602    10.585213 
  137000    2729.9851    18966.194    799200.15    722.34183   -7321.4301    10.567138 
  138000    2766.0305     18969.44    800364.38    731.87927     -7315.72     10.56533 
  139000    2679.3975    18912.714    809966.85    708.95656   -7301.1423    10.597019 
  140000    2675.8184    18932.471    807445.58    708.00956   -7299.4985    10.585961 
  141000    2761.8236    18946.804    799630.93    730.76615   -7336.8333    10.577952 
  142000    2735.1247    18954.619    803933.16    723.70173   -7308.2577    10.573591 
  143000    2750.4608    18954.101    802090.98     727.7596   -7315.6053     10.57388 
  144000     2749.365    18950.267    799749.04    727.46966   -7334.0081    10.576019 
  145000    2721.8201     18940.65    803925.15    720.18138   -7316.5523    10.581389 
  146000    2761.1202    18953.533    802874.81    730.58002   -7316.4392    10.574197 
  147000    2617.0619    18882.463    816991.87    692.46284   -7290.6705    10.613996 
  148000    2708.2678    18906.684    814697.98    716.59551   -7285.3511    10.600399 
  149000    2722.8737     18906.71    809195.19    720.46017   -7316.8886    10.600384 
  150000    2705.0889    18931.417    805141.38     715.7544   -7321.0648     10.58655 
  151000    2741.8502    18939.856    803877.23    725.48127   -7320.9707    10.581833 
  152000    2685.8652    18898.102    812194.21    710.66788   -7301.4593    10.605213 
  153000     2717.675    18886.017    818149.84    719.08463    -7286.451    10.611998 
  154000    2685.2536    18894.222    820709.22    710.50605   -7268.0701     10.60739 
  155000    2688.3496    18909.617    809398.31    711.32524   -7310.4173    10.598754 
  156000    2615.9373     18930.16     800160.5    692.16528   -7336.1315    10.587253 
  157000    2695.8251      18973.8    794623.95    713.30325   -7334.2752    10.562902 
  158000    2784.8126    18989.565    788122.44    736.84892   -7367.2807    10.554133 
  159000    2674.5492    18995.493    792491.23    707.67372   -7324.6054    10.550839 
  160000    2728.5476    18969.119    793855.23    721.96147   -7345.8506    10.565508 
  161000     2739.554    18999.739     797484.2    724.87372   -7305.1761    10.548481 
  162000    2755.8039     18945.87    799814.29    729.17337   -7335.6198    10.578473 
  163000    2694.6002    18959.797    797121.84    712.97912    -7337.743    10.570703 
  164000    2658.5147    18971.471    793215.92    703.43107    -7340.998    10.564198 
  165000    2736.4253    19016.536    788462.89    724.04587   -7335.2171    10.539163 
  166000    2678.5264    18947.191    800914.92    708.72609   -7324.5762    10.577736 
  167000    2685.5577    18937.253     801160.8    710.58653   -7330.1163    10.583287 
  168000    2631.6111    18933.678    807787.14    696.31249   -7296.8355    10.585286 
  169000    2756.9209    18872.873    818566.63    729.46892   -7300.5769    10.619389 
  170000    2690.5059    18863.612    825635.62     711.8958   -7268.4033    10.624603 
  171000    2796.2216    18925.891    807593.06     739.8677   -7317.9684    10.589641 
  172000    2700.5847      18935.7    805712.09    714.56261   -7310.9056    10.584155 
  173000    2650.3348    18913.243    808697.46     701.2667   -7313.0545    10.596722 
  174000    2716.4267    18953.211    806959.08    718.75433   -7291.0876    10.574376 
  175000    2796.4146    18907.804    810374.87    739.91878   -7315.3389    10.599771 
  176000    2686.1726    18893.332    812389.58    710.74923   -7310.3313     10.60789 
  177000     2729.948    18936.177    807100.19    722.33201   -7308.8067    10.583889 
  178000    2682.6267    18969.095    805065.75    709.81101   -7286.4604    10.565522 
  179000    2658.0734    18937.306    803448.94    703.31431   -7316.3376    10.583258 
  180000    2708.6709     18938.94    802644.57    716.70219   -7326.6622    10.582345 
  181000    2652.1683    18897.601    806322.48    701.75185   -7334.5204    10.605493 
  182000    2766.0281    18917.271    804895.18    731.87864   -7333.0827    10.594466 
  183000    2671.6431    18924.456    808650.11     706.9048   -7303.8899    10.590444 
  184000    2746.1305    18950.817    799425.87    726.61381   -7337.6697    10.575712 
  185000    2607.1289    18938.237    801286.96    689.83462   -7325.3259    10.582737 
  186000    2691.6859    18958.135    796489.03    712.20803   -7339.7725     10.57163 
  187000    2633.7486    18943.601    799927.64    696.87807   -7325.7072     10.57974 
  188000     2674.653    18964.818    797064.93    707.70119   -7327.5441    10.567904 
  189000    2678.0344    18979.074    794351.53    708.59589   -7332.6667    10.559966 
  190000    2684.9827    18962.752    798790.62    710.43438   -7324.9527    10.569056 
  191000    2634.0737    18973.835    798952.81    696.96408   -7310.4676    10.562882 
  192000    2711.8115    18988.865    791697.93    717.53317   -7339.9628    10.554522 
  193000    2656.4803    18998.131    795269.12    702.89279   -7311.6494    10.549374 
  194000    2627.5526    18939.341    798702.78    695.23863   -7339.7114    10.582121 
  195000    2704.1308    18950.407    801786.47    715.50088   -7318.2657    10.575941 
  196000    2644.7224     18923.56    812430.88    699.78169   -7283.5306    10.590945 
  197000    2699.0049    18900.009    815065.56     714.1446   -7291.8592    10.604142 
  198000    2679.3421    18893.238    814575.71    708.94191   -7299.8548    10.607943 
  199000    2808.6374    18970.533    801498.64    743.15285   -7311.1654    10.564721 
  200000    2641.7194    18974.199    798600.49     698.9871   -7316.4903     10.56268 
  201000    2670.6163    18986.777    796703.82    706.63309   -7318.6604    10.555682 
  202000    2706.3894    19022.546    789647.72     716.0985   -7328.4146    10.535834 
  203000    2694.3631    19035.415    783418.85    712.91639    -7345.089    10.528711 
  204000    2648.7231     18988.16    785764.62    700.84026   -7365.6849    10.554914 
  205000       2691.6     19004.76     789922.5     712.1853   -7329.7865    10.545694 
  206000    2664.2857     18955.44     798925.5    704.95804   -7327.9073    10.573133 
  207000    2752.6815    18970.749     798895.5    728.34717   -7320.0514      10.5646 
  208000    2681.2946    18939.664    803534.71    709.45853   -7322.0708     10.58194 
  209000    2756.4336    18950.051     802766.9    729.33999   -7320.2097     10.57614 
  210000    2645.7571    18953.494    804242.22    700.05546   -7302.5008    10.574218 
  211000    2720.7344    18943.159    803963.77    719.89411   -7316.4602    10.579988 
  212000    2618.7217    18906.512    809315.79    692.90202   -7309.4218    10.600495 
  213000    2724.1185    18945.764     805291.5    720.78955   -7305.6963    10.578533 
  214000    2757.4511    18964.404    798883.83     729.6092   -7327.2688    10.568135 
  215000    2614.7189    18950.184    797964.61    691.84291   -7330.0188    10.576066 
  216000     2677.245    18986.004    793139.09    708.38703   -7335.5877    10.556112 
  217000    2766.2935    19049.777     776668.9    731.94887   -7375.1351    10.520773 
  218000    2719.9519    19015.693    784081.29    719.68708   -7356.4402    10.539631 
  219000    2717.6661    18985.713    792737.47    719.08228    -7342.068    10.556274 
  220000    2720.5152    18989.066    786310.64    719.83611   -7369.6702     10.55441 
  221000    2682.3367    19023.635    787601.97    709.73426   -7332.1978    10.535231 
  222000    2717.9986    19015.183    785907.46    719.17023   -7354.7316    10.539914 
  223000    2723.8781    18985.812    796226.13    720.72593    -7322.574    10.556219 
  224000    2740.5065    18938.518    800479.23    725.12573   -7339.0623     10.58258 
  225000    2699.7442    18933.993    806234.72    714.34022   -7315.6992     10.58511 
  226000    2689.0659     18914.91    811564.94    711.51477   -7295.0451    10.595788 
  227000     2749.999     18925.82    806344.29    727.63741   -7317.2737    10.589681 
  228000     2718.651    18926.571    813402.38    719.34286   -7280.5684     10.58926 
  229000    2780.6055    18899.764    815181.16    735.73576   -7295.4513     10.60428 
  230000    2672.6773    18875.945     818037.9    707.17842   -7296.1124    10.617661 
  231000    2718.3526    18924.597     806030.3     719.2639    -7317.826    10.590365 
  232000    2745.8199    18951.534     801489.2    726.53163   -7323.6161    10.575312 
  233000    2669.1887    18947.929    800406.86    706.25538   -7324.9492    10.577324 
  234000    2644.2172    18981.748    792942.12    699.64801   -7336.2686    10.558479 
  235000    2649.8683    19017.453     781326.4    701.14327   -7369.1614    10.538656 
  236000    2751.4957    19040.945    784864.57    728.03341   -7341.2142    10.525653 
  237000    2683.4782    18990.023    791207.18    710.03631   -7339.7886    10.553878 
  238000    2679.2936    18962.213    793668.14    708.92907   -7349.2836    10.569356 
  239000    2662.0277    18957.898    796876.25     704.3606   -7334.1938    10.571762 
  240000    2732.2109    18943.929    803014.92    722.93075   -7325.2394    10.579557 
  241000    2701.7745    18930.413    803672.19    714.87742   -7329.0736    10.587111 
  242000    2706.9208    18920.628    804420.39     716.2391   -7330.3702    10.592586 
  243000    2674.7842     18902.71    804452.15     707.7359   -7342.0387    10.602627 
  244000    2748.4011    18951.716    799804.42     727.2146   -7336.7672    10.575211 
  245000    2705.1695    18935.219    795776.09    715.77572   -7362.8182    10.584424 
  246000    2693.6258    18924.321    799753.86     712.7213   -7352.0862    10.590519 
  247000    2669.7602    18966.745    798843.97    706.40658   -7320.8641    10.566831 
  248000    2675.0083    19007.392    785159.94    707.79521   -7360.5917    10.544234 
  249000    2658.1534    19021.621     780686.5    703.33547   -7372.3455    10.536346 
  250000    2623.2518    18944.662    794076.81    694.10065   -7360.5046    10.579148 
Loop time of 586.555 on 8 procs for 250000 steps with 2048 atoms

Performance: 36.825 ns/day, 0.652 hours/ns, 426.218 timesteps/s
124.1% CPU use with 4 MPI tasks x 2 OpenMP threads

MPI task timing breakdown:
Section |  min time  |  avg time  |  max time  |%varavg| %total
---------------------------------------------------------------
Pair    | 358.79     | 363.2      | 367.17     |  18.5 | 61.92
Neigh   | 4.6571     | 4.6778     | 4.689      |   0.6 |  0.80
Comm    | 29.349     | 33.497     | 37.886     |  61.7 |  5.71
Output  | 0.0064835  | 0.011893   | 0.013716   |   2.9 |  0.00
Modify  | 184.08     | 184.2      | 184.34     |   0.7 | 31.40
Other   |            | 0.9744     |            |       |  0.17

Nlocal:        512.000 ave         519 max         508 min
Histogram: 2 0 0 0 1 0 0 0 0 1
Nghost:        3169.75 ave        3177 max        3164 min
Histogram: 1 1 0 0 0 0 1 0 0 1
Neighs:        49968.5 ave       52109 max       48109 min
Histogram: 1 0 0 1 0 1 0 0 0 1

Total # of neighbors = 199874
Ave neighs/atom = 97.594727
Neighbor list builds = 4530
Dangerous builds = 0


# fix 132 all momentum 100 linear 1 1 1 angular
fix out_file_1 all print 1000 "$(step) $(temp) $(press) ${sys_press} $(vol) $(ke) $(pe) $(density)" file one_phase_${sim}_press_$P_$T_.txt screen no title  "step temp press pressGiga vol ke pe density"
fix out_file_1 all print 1000 "$(step) $(temp) $(press) ${sys_press} $(vol) $(ke) $(pe) $(density)" file one_phase_cooling_press_$P_$T_.txt screen no title  "step temp press pressGiga vol ke pe density"
fix out_file_1 all print 1000 "$(step) $(temp) $(press) ${sys_press} $(vol) $(ke) $(pe) $(density)" file one_phase_cooling_press_800000_$T_.txt screen no title  "step temp press pressGiga vol ke pe density"
fix out_file_1 all print 1000 "$(step) $(temp) $(press) ${sys_press} $(vol) $(ke) $(pe) $(density)" file one_phase_cooling_press_800000_2700_.txt screen no title  "step temp press pressGiga vol ke pe density"

# dump 3 all custom 1000 traj_npt_new.lammpstrj id type x y z
run 50000
Last active /omp style is pair_style eam/alloy/omp
Per MPI rank memory allocation (min/avg/max) = 4.338 | 4.339 | 4.341 Mbytes
Step Temp Volume Press KinEng PotEng Density 
  250000    2623.2518    18944.662    794076.81    694.10065   -7360.5046    10.579148 
  251000    2758.5275    18951.743    794269.68    729.89401   -7356.9547    10.575195 
  252000    2666.3729    18896.948    803532.72    705.51032   -7350.4901     10.60586 
  253000    2727.2322     18893.02    811067.78    721.61342   -7318.5112    10.608065 
  254000    2700.9202    18898.493    804468.81    714.65137   -7346.8269    10.604993 
  255000    2702.9813    18912.665    803486.15    715.19673   -7341.2378    10.597046 
  256000    2602.4223    18875.391    802759.45    688.58928    -7366.323    10.617973 
  257000    2725.3365    18891.293    803542.11    721.11181   -7365.5984    10.609035 
  258000    2741.2953    18849.443    808397.26    725.33446   -7376.6262    10.632589 
  259000    2661.0768    18771.501    814565.51    704.10899   -7402.2832    10.676738 
  260000    2752.2919    18738.284    804658.41    728.24411   -7494.4419    10.695664 
  261000    2612.2958    18690.138    805616.79    691.20176   -7519.0894    10.723216 
  262000    2757.4722    18713.109    798791.33    729.61478   -7546.5494    10.710053 
  263000     2662.077    18679.222    801874.43    704.37364   -7552.3346    10.729482 
  264000    2696.4677    18685.579    801759.88    713.47326   -7554.6726    10.725832 
  265000    2795.4276    18667.016    806351.27    739.65761   -7550.3494    10.736498 
  266000    2717.7491     18654.87    806160.07    719.10424   -7557.2964    10.743489 
  267000     2764.486    18698.825    795419.87     731.4706   -7572.1323    10.718234 
  268000    2677.0851    18663.721    800118.33    708.34472   -7576.3797    10.738394 
  269000    2741.6426    18707.913    794389.08    725.42633   -7574.1885    10.713027 
  270000    2745.1288    18711.532    788782.91    726.34877   -7595.3426    10.710956 
  271000    2734.5776    18696.261    795701.21    723.55697   -7573.6443    10.719704 
  272000    2647.1302    18668.101    797209.38    700.41879   -7580.1819    10.735874 
  273000    2698.9742    18671.498    801195.94    714.13646   -7564.3108    10.733921 
  274000    2700.7428     18634.02    805651.35    714.60443   -7573.9183     10.75551 
  275000    2781.9809    18630.029    807647.36    736.09967   -7569.6778    10.757814 
  276000     2652.897      18587.8    814130.28    701.94466   -7562.6285    10.782255 
  277000    2741.3666    18646.968    808925.34    725.35331   -7546.9355    10.748042 
  278000    2686.0441    18653.502    803456.68    710.71524   -7565.3457    10.744277 
  279000    2740.0317    18690.146    803602.31    725.00009   -7538.6069    10.723211 
  280000    2677.1184    18624.363     810731.8    708.35352   -7552.5466    10.761087 
  281000    2670.5987    18569.568    826518.88    706.62845   -7517.8806    10.792841 
  282000    2781.2846    18602.766    820127.11    735.91544   -7530.8032     10.77358 
  283000    2670.7485    18635.599    806855.82    706.66807   -7561.3944    10.754599 
  284000    2699.5905    18691.045    800367.63    714.29955   -7553.3805    10.722696 
  285000    2743.9368    18694.041    790492.83    726.03336   -7601.4596    10.720977 
  286000    2674.0448    18707.182    788907.44    707.54027   -7591.1103    10.713446 
  287000    2671.9547    18720.986    784701.76    706.98724   -7599.9793    10.705546 
  288000    2733.0301    18733.021    782322.41    723.14751   -7608.9967    10.698669 
  289000    2658.2236    18688.598     791605.8    703.35405    -7594.576      10.7241 
  290000    2646.5301    18691.829    794686.35    700.25999   -7574.1154    10.722246 
  291000    2669.1656    18684.016    795690.72    706.24925   -7576.4436     10.72673 
  292000    2648.2905    18687.897    794511.27    700.72578   -7577.0409    10.724502 
  293000    2749.1056    18701.018    792990.23    727.40101   -7575.5077    10.716977 
  294000     2669.053    18656.386     800170.7    706.21947   -7575.8781    10.742616 
  295000    2787.5061    18675.903    797598.77    737.56161   -7581.5493    10.731389 
  296000    2680.2598    18624.411     806802.3    709.18472    -7571.966    10.761059 
  297000    2672.3454     18606.21    811097.77    707.09061   -7563.3358    10.771586 
  298000    2687.4966     18647.83    806289.41    711.09955   -7555.4115    10.747544 
  299000    2691.3347    18661.922    804999.06    712.11509   -7549.0653    10.739429 
  300000    2726.9247    18635.544    802894.76    721.53205   -7583.6753     10.75463 
Loop time of 110.113 on 8 procs for 50000 steps with 2048 atoms

Performance: 39.232 ns/day, 0.612 hours/ns, 454.078 timesteps/s
121.8% CPU use with 4 MPI tasks x 2 OpenMP threads

MPI task timing breakdown:
Section |  min time  |  avg time  |  max time  |%varavg| %total
---------------------------------------------------------------
Pair    | 67.295     | 67.501     | 67.756     |   2.0 | 61.30
Neigh   | 0.97826    | 0.98411    | 0.99015    |   0.5 |  0.89
Comm    | 4.5858     | 4.8356     | 5.0565     |   7.7 |  4.39
Output  | 0.0011183  | 0.001805   | 0.0020363  |   0.9 |  0.00
Modify  | 36.6       | 36.618     | 36.636     |   0.3 | 33.25
Other   |            | 0.1731     |            |       |  0.16

Nlocal:        512.000 ave         522 max         501 min
Histogram: 1 0 0 1 0 0 0 1 0 1
Nghost:        3203.00 ave        3218 max        3192 min
Histogram: 1 0 1 0 1 0 0 0 0 1
Neighs:        49874.5 ave       50997 max       48821 min
Histogram: 1 1 0 0 0 0 0 1 0 1

Total # of neighbors = 199498
Ave neighs/atom = 97.411133
Neighbor list builds = 870
Dangerous builds = 0

unfix temp
unfix out_file_1


write_data after_${sim}_press_$P_$T.in
write_data after_cooling_press_$P_$T.in
write_data after_cooling_press_800000_$T.in
write_data after_cooling_press_800000_2700.in
System init for write_data ...
Last active /omp style is pair_style eam/alloy/omp
write_restart after_${sim}_press_$P_$T.lmp
write_restart after_cooling_press_$P_$T.lmp
write_restart after_cooling_press_800000_$T.lmp
write_restart after_cooling_press_800000_2700.lmp
System init for write_restart ...
Last active /omp style is pair_style eam/alloy/omp

next loopVar  #<----->
jump in.lmp ensemble
























Total wall time: 1:08:03
