LAMMPS data file via write_data, version 29 Oct 2020, timestep = 150000

2744 atoms
1 atom types

-0.14658602724093406 24.954586027240676 xlo xhi
-0.14658602724093406 24.954586027240676 ylo yhi
3.579709686337946 56.08618726639351 zlo zhi

Masses

1 58.933

Atoms # atomic

31 1 1.703405961218048 3.172084866260467 6.22246694598563 0 0 0
5 1 0.27855280912477426 1.230465809888474 6.244794769253359 0 0 0
4 1 -0.0004485783624943729 3.2115569589780786 4.20014718918746 0 0 0
8 1 1.6477082014297275 1.435017641777009 4.373559451810611 0 0 0
860 1 1.9016640867757038 1.3425877813989129 8.004685176320395 0 1 0
1523 1 2.111767889774552 24.489659959476135 6.2898416373238195 1 -3 -1
1567 1 0.22456632725046843 3.2712521523298808 8.118405014223217 1 0 -2
856 1 0.10586788711720063 24.79320331040322 7.956073492128208 0 0 0
2120 1 3.6301762943752673 3.2118223419312772 4.241008930147693 -2 -1 -1
103 1 4.056752595874446 1.5187262824428334 6.44867761463702 0 0 0
131 1 3.703249509006847 3.3153590853252273 8.042199219138396 0 0 0
12 1 7.7207413839720145 1.541824648634044 5.976017488721753 0 0 0
104 1 5.752415162340547 3.507906068292676 5.590942021709068 0 0 0
1748 1 6.012456536239889 1.4595189494926126 4.216491369201304 0 0 1
1823 1 7.332622383171055 3.4328731753635724 3.9022341687884405 -1 0 1
859 1 5.596127418263101 1.3950395836966163 8.18031712367997 0 1 0
7 1 7.807766692011765 24.67079843743666 4.613549809775204 0 -1 0
39 1 9.281150687410237 3.2924160882094586 5.793782223269403 0 0 0
112 1 11.106754520696263 1.5388886299067353 6.146874670065454 0 0 0
40 1 11.402017390530842 2.9299212380468034 4.048755978059693 0 0 0
2416 1 9.329519782363732 1.350325410763998 4.241123280473137 0 1 1
108 1 9.279448417513 1.9595282531897076 7.635880909081556 0 0 0
9 1 11.092696650695537 0.1903740750521949 4.281188742040188 0 0 0
2622 1 13.243165366096088 1.419344600258762 4.237137610586827 -1 1 2
43 1 13.01562463958064 2.9804885245077237 6.090732129012637 0 0 0
16 1 15.253546014991187 1.464108888208017 5.923942787466441 0 0 0
45 1 14.801963786188951 2.918047925915713 4.2608293485082624 0 0 0
113 1 13.205687764538103 1.507278533247408 7.896646013767986 0 0 0
145 1 14.52723447224492 3.363440936044407 7.836378869922626 0 0 0
2598 1 17.102381014417794 1.4248585534269398 3.854563914867608 -2 1 2
19 1 15.17712667568459 0.026540556451189523 4.070081316734196 0 0 0
1421 1 13.27939116952512 0.02599406242940061 5.994470962146092 1 -1 -1
143 1 16.481056527373504 3.3869805181995996 6.079695360827367 0 0 0
116 1 18.440745273950498 1.644451522018325 6.12803369738772 0 0 0
56 1 20.1924132835333 3.1538272288885736 5.942654197759935 0 0 0
14 1 18.606752768930434 3.2696011867895165 4.441956883805976 0 0 0
66 1 9.299641896203276 8.539768351469862 3.7661240513627234 0 0 0
119 1 16.738667576356164 1.5176419176071025 7.790597686953745 0 0 0
1860 1 18.60417330502473 24.76840640495491 3.857277755031456 -1 -1 1
28 1 21.69834027714227 1.2289712532983126 5.896107110079675 0 0 0
130 1 23.727383258638405 3.257320590917029 6.325447753927374 -1 0 0
83 1 21.8554403041363 3.2881193896459195 4.157487755226297 0 0 0
99 1 23.584481576470147 1.3729509450358197 4.087282761306783 -1 0 0
23 1 23.578812488047937 24.73809936703816 6.399667249733575 0 -1 0
124 1 23.425287474960292 1.5352728126767807 7.972916636945003 0 0 0
128 1 1.585450274191617 6.934103875297417 6.034947058936687 0 0 0
3 1 0.13130458949092422 5.211360334928525 6.132122735693111 0 0 0
61 1 0.31194741456606084 6.7198965005001945 4.130780841593258 0 0 0
2546 1 1.854346203262002 4.935766387036641 4.447575962078143 0 1 -1
129 1 1.8000516988348632 4.984048326196619 8.58381858198007 0 0 0
1957 1 3.3886976976666796 6.702813707587834 3.9658746195283183 -1 1 2
185 1 3.688927336270028 6.871072962038895 8.279381909859985 0 0 0
159 1 3.6181825788820308 5.158146424356708 6.121752668095705 0 0 0
35 1 7.224555625007367 5.230295798215794 5.836687760596825 0 0 0
2124 1 5.481389338843165 6.776092470945447 6.040835919929621 1 -1 -2
38 1 7.4100930998642145 7.2405865930646325 4.121057286534353 0 0 0
132 1 5.779894765595861 4.577369165284551 7.879562793010879 0 0 0
36 1 5.343063267228658 5.262160881162433 3.917014515715754 0 0 0
163 1 7.368544669301328 6.799560392194259 7.662416123465773 0 0 0
44 1 11.285834545141103 4.982306090828852 5.636431918272272 0 0 0
67 1 9.125608058403525 7.140907541494057 5.743269671512719 0 0 0
41 1 11.101342573196645 6.825456829700091 3.8511146034098287 0 0 0
71 1 12.861864972340733 6.6536796633613156 5.762557087698253 0 0 0
48 1 14.799412462956568 5.091150263913059 6.059684485853668 0 0 0
742 1 9.867267214486832 23.3774904715438 4.2154053607518085 0 0 0
171 1 14.6956026259443 7.03082867083076 7.639392651027365 0 0 0
140 1 12.953083577058976 5.1892727223077975 7.760121266903664 0 0 0
1615 1 13.042968930594549 4.7235840738022645 4.064283782242804 -1 -1 1
42 1 14.673833847016995 6.703416049973183 4.179354366625467 0 0 0
175 1 16.459106040445654 6.721103509845636 5.976350103631052 0 0 0
144 1 16.462571206098616 5.323543941474894 8.050069444867066 0 0 0
52 1 18.31705524183438 4.853601815164628 6.110890071398346 0 0 0
78 1 20.027726522269568 7.1378422264354695 6.050606420632849 0 0 0
18 1 19.88678066947208 5.393705227287345 3.928682665369044 0 0 0
79 1 18.227108158271996 7.097715956721258 4.127013010527152 0 0 0
148 1 18.115385329467934 7.159180498814134 7.790428065037576 0 0 0
24 1 21.56633624132712 5.243463597691514 6.02094818879964 0 0 0
155 1 23.438004644473047 6.999787304995009 5.642953078221028 -1 0 0
152 1 21.997358314895394 6.6526075555233515 3.777431080570007 0 0 0
100 1 23.514091706224427 5.087900344242676 4.210471618214439 -1 0 0
127 1 23.5134372456372 5.644182092589868 7.857746142452602 -1 0 0
97 1 1.5665890461630532 8.678693032143732 4.107911135937872 1 0 0
60 1 -0.03974280989070657 8.97827886263535 5.857103170432326 0 0 0
64 1 2.0312581728668895 10.557930178258252 6.30083699578337 0 0 0
183 1 0.22453675118581895 12.55502523117068 6.204318020442399 0 0 0
156 1 2.042193541069947 8.806981862132375 8.078050603828888 0 0 0
1633 1 0.11902074798875278 10.705432225823818 3.898161364037622 0 0 -1
707 1 1.864511821715093 12.517957930309864 4.17261063631181 0 0 0
785 1 2.240683897473377 12.49564193738456 7.68400021285989 0 0 0
2190 1 3.4671234296828377 10.219466035845405 3.9947439114614256 0 0 0
63 1 3.560745252369068 8.765376501265273 5.788793177848243 0 0 0
86 1 3.9061811792022496 10.605279523593047 7.583859349979418 0 0 0
2612 1 5.438155186244247 8.305552535689284 4.26276221085551 1 1 1
160 1 7.223787697787467 8.559896166067109 6.277589169940942 0 0 0
88 1 5.586254730821331 10.250097777327573 5.911928739011615 0 0 0
1971 1 7.3504728385592495 9.904214520403785 3.9914740772393715 0 -1 1
187 1 5.395399428677357 8.462238996251775 7.756520287314851 0 0 0
789 1 7.732211803048303 10.139686088515193 8.141498992864456 0 0 0
1834 1 3.9175141564371634 12.04449704736925 5.732299123463086 1 1 0
2504 1 11.058487412966453 10.41530205326716 4.206295928452942 -2 0 1
72 1 11.400585080630393 8.382140488960024 5.810433669966392 0 0 0
90 1 9.580897209750267 9.73100452793814 5.750891294793972 0 0 0
2118 1 0.4173334898149871 17.40844971124487 4.266489000080511 0 -1 -2
694 1 10.82389113381721 12.32993686197189 5.920813483050253 0 0 0
189 1 11.234854806995395 10.514729627444531 7.739965227003091 0 0 0
164 1 10.003076078905732 8.375985519334241 7.851961001885637 0 0 0
93 1 14.803593295212895 10.450502483486487 3.9224720739472656 0 0 0
76 1 14.548166959541568 8.86674449798229 5.976873674919244 0 0 0
92 1 12.554603603391199 10.434284930772511 5.9554601179944795 0 0 0
696 1 14.853861886988906 12.245502118824461 6.07291479779567 0 0 0
2635 1 13.243026381085405 8.753320380958419 3.975117360000292 2 1 -1
791 1 12.954869997339198 12.283782731673211 7.597652620548939 0 0 0
168 1 12.907521102449484 8.4603099096803 7.657832906715214 0 0 0
2408 1 12.71147669425491 12.110487402173618 4.304815363903378 1 0 1
191 1 14.238677311853818 10.394352457623599 8.373872851363922 0 0 0
75 1 16.229966980083347 8.635564962373993 3.978233800907148 0 0 0
1765 1 20.352923994253622 1.2787217904913974 3.899258383620844 -2 -2 1
172 1 16.317751580524934 8.619462532477366 8.144458418191482 0 0 0
94 1 16.130851611172737 10.359372231790726 5.878417317803385 0 0 0
793 1 16.179511819908264 12.03946564122251 7.925738866895102 0 0 0
2257 1 20.07728205020087 8.437067408433753 3.926679312947729 -1 -2 0
96 1 17.89709602576348 8.806464823732037 5.818779505148139 0 0 0
57 1 19.822391426750514 10.596421052319522 6.03076082223919 -1 0 0
2707 1 18.601668128474657 10.33047407335013 3.8604478983798103 1 0 2
723 1 18.046012123395208 12.085349531337634 6.093411577685162 0 0 0
176 1 20.069815465981257 9.097769380875162 7.877702331016479 0 0 0
724 1 20.557821510870703 12.187768905602427 4.369658095570672 0 0 0
193 1 17.911206697147023 10.239768342885538 7.72415694165254 0 0 0
2013 1 23.78338748064465 8.670394342443673 3.684484281004286 1 0 3
98 1 23.573454334023893 12.569915240782729 4.21460864060113 0 0 0
2475 1 21.508208639234297 10.239218244808184 4.009022551944494 -1 -1 0
1640 1 21.952314009379222 8.993308210617325 6.135383658092106 -1 0 -2
195 1 23.53856616562304 10.730580790835834 5.627138736009812 0 0 0
699 1 21.783815036567162 12.42684972432046 6.672534159439347 0 0 0
797 1 23.6516638464623 12.48072044682768 7.866873827306438 0 0 0
180 1 23.71661949739846 8.693927997928514 7.829640435255736 0 0 0
2373 1 0.34929767737127027 14.301431667375043 3.7369024323960423 1 -1 -1
708 1 2.3133900604793043 14.197690117763855 5.750137673964091 0 0 0
827 1 0.296283965334831 15.68162629328718 6.192686931917599 0 0 0
705 1 3.9145301784141466 15.764164315257776 5.650148328181128 0 0 0
831 1 4.040186018051052 13.68211130646147 7.302076386261809 0 0 0
800 1 2.156535020794687 16.032099566738303 4.009398025539585 0 0 0
701 1 0.40158912139913605 14.046169502327128 7.908560729155354 0 0 0
824 1 2.2937468137451766 15.705012486384582 7.678326775054972 1 0 0
690 1 5.927095967312844 12.071909290267175 4.06690039466535 0 0 0
692 1 7.792770225402302 11.456696734597797 6.028135145319556 0 0 0
787 1 5.920698095258222 12.066237122259842 7.576794942051874 0 0 0
712 1 3.999448739733226 13.919500407780399 3.985572750005083 0 0 0
1402 1 7.734526388923553 14.067715764930659 3.7677230779135864 -2 0 2
803 1 6.231065654721963 13.843000856181382 5.7196063329398275 0 0 0
2175 1 7.420309971801477 16.482728994255943 5.892770414021507 1 1 2
733 1 6.009596660891394 16.085143004301692 3.9146756008933 0 0 0
804 1 5.5615980372368234 15.638278967809923 7.696834772476402 0 0 0
807 1 7.255015281284976 14.155810465583164 7.643306019010644 0 0 0
2019 1 9.0024716190846 12.154324621706808 3.995951303463824 -2 1 2
2154 1 9.382835051614558 15.9606751289621 4.321026937405998 1 -1 -2
2499 1 10.6931538560716 15.852535422549595 6.187809684289035 -1 -1 0
1836 1 9.169270538405705 14.102799557637178 5.7290892447215604 0 0 0
2719 1 11.005902162867606 14.214649806717096 4.051609004576705 -2 1 -1
811 1 11.111351134451823 13.918280047131898 7.742104625509787 0 0 0
711 1 9.144742741224098 12.354754292248042 7.772856517182429 0 0 0
808 1 8.869083960171253 16.116848878949902 8.12924063191253 0 0 0
746 1 12.794807088712544 16.19349201517001 4.041017257780619 0 0 0
812 1 12.845369700840758 15.626888989869157 7.839395181011095 0 0 0
715 1 12.894838525690941 13.963306012361242 5.948877874905538 0 0 0
720 1 14.703908970162422 16.044145978972864 5.668717080609889 0 0 0
2396 1 14.891803021068228 14.199392241530713 4.067899184651466 1 1 0
815 1 14.678532781646913 13.82707050042797 7.72631999073292 0 0 0
719 1 17.110125611676636 15.655958458550911 7.762948178491752 0 0 0
748 1 16.71035134663088 15.706305174469966 4.165166267294789 0 0 0
2463 1 16.472705917715523 14.359542394794898 5.874075960621342 -1 0 1
2692 1 18.51914935320398 13.858984257662105 3.975373154991662 -2 -2 1
698 1 19.89711120827782 13.72374099703552 6.370744908772352 0 0 0
747 1 18.486571657548055 15.752370941642052 5.977615784098305 0 0 0
1463 1 19.952321174287967 15.908156209621042 3.6535008075101065 -1 0 -2
820 1 19.95295720689615 15.612982163519282 7.95718784075277 0 0 0
751 1 21.485947170954887 14.315347494723204 4.377246415360774 0 0 0
688 1 23.509189883685337 14.37908384117132 5.785614500104348 -1 0 0
728 1 21.871728840151235 15.793139947743201 6.048989845589848 0 0 0
755 1 23.75686743465552 15.63892205368602 3.8779898963172417 0 0 0
700 1 22.206298197122614 14.166906656894728 8.183237281501878 0 0 0
823 1 23.3432268060724 16.16578796558798 8.1439433516755 0 0 0
2538 1 2.0119811946115083 19.261500565877604 4.462555523450751 1 1 -2
2606 1 2.4963392747189377 17.67681682024883 5.958920904504189 1 1 2
1524 1 0.5277583973276522 19.047605498265327 6.1776308862205305 1 -2 0
736 1 3.925052019188705 17.91171401537197 4.0866758873893 0 0 0
732 1 2.1588541204113345 19.181405640669162 8.007894246033093 0 0 0
799 1 0.340161183198617 17.377685450150828 7.789253335507176 0 0 0
763 1 3.7811869869849186 19.679791927124896 6.012773338258044 0 0 0
1507 1 5.996907248367318 19.855122334560527 3.85364830385875 0 -3 2
758 1 5.613465907470645 17.708291447138855 6.102870017294997 0 0 0
2530 1 7.483176874907295 19.111418439816724 5.803818502402132 1 1 1
2350 1 8.095204795488103 17.731996092429263 3.9853193042569925 2 -1 -1
835 1 5.622550953997155 19.441276182009048 7.782687216669123 0 0 0
740 1 4.024856844608023 21.26843188038601 7.979274390181416 0 0 0
2349 1 9.079318750840319 5.058232661250414 4.086483891543822 0 -1 0
710 1 9.534101848470232 17.806437822784446 6.1384447349848585 0 0 0
1514 1 11.294374371363556 19.66842345061768 5.937430522772898 0 -2 -2
716 1 9.463209043375397 19.670391502249537 3.957156382699579 0 0 0
741 1 12.836824572424955 19.49440508785495 3.9808903259528 0 0 0
1758 1 12.934811485370076 17.615033185360367 6.191718606422958 1 -3 0
743 1 14.475522719718958 19.33443870680763 5.857939283524514 0 0 0
1830 1 14.964859383825008 17.54269914221252 3.8835891841101753 -1 -1 0
843 1 14.86546456728575 17.68473961349933 7.883869121886171 0 0 0
771 1 16.176036853008775 19.655668252366304 3.668285640043289 0 0 0
2033 1 12.699759537846326 19.656528185019575 7.585968913964084 0 -3 1
847 1 16.42464289009223 17.81670621447615 5.8874656301627 0 0 0
2096 1 18.065461264972306 19.55839643851813 5.950890722957556 0 -1 0
779 1 20.360270462781337 17.3864819268503 5.769558388022583 0 0 0
2029 1 18.203696670390975 17.459676157883592 4.277188650819171 0 2 2
2177 1 20.27331623073063 19.46330078346213 3.707768383319763 0 0 -1
848 1 19.927952114771976 19.32586165464246 7.751855536943364 0 0 0
752 1 18.161654142306247 17.78441728977527 7.496482891341395 0 0 0
2394 1 23.89965286797586 19.390099774160674 4.522005739241438 -1 2 2
1920 1 21.94331745349254 17.703823140620372 3.9242580873052906 0 2 2
783 1 23.757081598538086 17.555077030755633 5.80085570413866 0 0 0
2691 1 21.773486823339795 19.454719404507145 5.9172477523035845 -1 0 -2
852 1 23.422699052950378 18.888122830918384 7.768543243362588 0 0 0
851 1 21.538975632993854 17.324437284569072 7.892460402117116 0 0 0
777 1 0.08995333397368324 24.408019670713728 4.497207760593875 1 0 0
2508 1 3.721752971015366 0.07215059815859498 4.434093230792231 -1 0 0
756 1 0.45410050307714045 21.087672450780275 4.113682876799344 1 0 0
760 1 0.09860571158808132 20.731712833512475 8.032645586553848 0 0 0
828 1 1.7452371210007558 21.223113133194005 6.265451747748206 0 0 0
764 1 -0.09379950800464978 22.68762184163854 6.331464906396033 0 0 0
832 1 2.057670457980759 22.84208087080338 8.127264038546402 0 0 0
2412 1 2.0064583092977206 22.654837450265312 4.381550796568243 0 -2 -1
737 1 7.902632458419134 21.34284701281132 4.30024100798451 0 0 0
765 1 5.769420663726094 21.263574173000123 5.643256762050312 0 0 0
1629 1 3.8746568728416673 22.868099807889166 5.84896926227249 -1 0 0
2283 1 4.074681701659638 21.437907733829363 3.98776702809615 -2 -1 0
757 1 5.558358128659092 24.74918591753135 6.32774759001795 0 0 0
766 1 7.49605069266133 22.833710223940535 6.02301052543296 0 0 0
1856 1 5.864565882188953 23.33355294500035 4.288594962324697 -1 0 -1
762 1 5.788243973121022 23.08925503888549 7.9300424727059475 0 0 0
111 1 9.46002605990007 24.851853758212712 6.446563338843555 0 -1 0
706 1 9.287191418471693 21.09535661764346 6.1460922738456265 0 0 0
772 1 11.032487070735481 21.42664026750044 4.2436841342886975 0 0 0
744 1 11.18731067824373 23.011987822008635 6.41011379769588 0 0 0
2447 1 11.007545400440033 17.63650080588429 3.957078805499986 1 -2 2
869 1 11.022293466731554 21.185203648676143 8.092124140228455 0 0 0
11 1 11.18814459993743 24.667256003950946 8.033096382158991 0 -1 0
115 1 15.041666554932286 24.789639197869583 7.671694841583534 0 -1 0
2264 1 15.090084300286946 21.893066939249486 3.9522871279635043 -1 -1 0
871 1 14.665005396408556 21.20173914774309 7.690005763747669 0 0 0
776 1 13.184614721628957 21.347705174208187 5.380491297523514 0 0 0
775 1 12.829446143783857 23.270752230177038 4.299293517742463 0 0 0
774 1 14.802151611046552 23.344220155801594 6.0542319039667225 0 0 0
15 1 16.50224244800441 21.5492770309492 5.846269631024141 0 -1 0
867 1 13.177823172405008 23.386479506204353 7.719495293700609 0 0 0
780 1 16.80157688867009 23.373599583824912 4.368575068106171 0 0 0
784 1 19.853462240982388 24.665307354281126 5.775466273490178 0 0 0
2637 1 18.201508969767694 21.303887877417175 3.863771680800447 1 2 1
20 1 16.65838495071698 24.94596816918901 5.9591725556590145 0 -1 0
879 1 20.087333705658736 21.125716852884388 5.544245385194134 0 0 0
27 1 18.47671416890337 22.923560490342126 5.76144799694117 0 -1 0
2710 1 19.977997562185514 22.769228811597436 3.7206081511793823 -1 1 2
882 1 19.911284135565403 23.118753290208105 7.915398828540967 0 0 0
875 1 18.328979514696933 21.320143432779 7.6664721785345415 0 0 0
1460 1 23.822710635597254 22.43000994550995 4.364492301807255 0 0 -1
1660 1 22.061745155035588 24.404966542879542 4.109727641718943 1 -1 2
753 1 23.486828588845633 21.044738374246712 6.490675422997191 0 0 0
1880 1 21.87090147001655 22.830706528756785 5.931891788927204 0 -1 1
782 1 23.47327726036022 22.824514555436167 8.567213594644068 0 0 0
1872 1 21.853093473529434 20.974080081571117 4.203618785976957 -2 -1 -1
198 1 2.1030750607677002 3.398977890759683 10.204811347478193 0 0 0
199 1 1.9317446081501237 1.6181468689175533 11.306187006972259 0 0 0
225 1 0.23318163744499099 1.6067248512818717 9.724950183749101 0 0 0
102 1 24.922852099014193 3.376451714103335 11.604120951681002 -1 0 0
106 1 4.106652255098731 1.575927281033133 10.212938818333782 0 0 0
229 1 3.7583505477329338 2.9788574511691777 12.052413357171666 0 0 0
863 1 3.7687361396331642 24.807826083586377 8.21885737764476 0 0 0
135 1 7.431677779525573 3.0965033039399863 7.868421162416897 0 0 0
110 1 7.694372080667638 1.7405252056896985 10.02054935283585 0 0 0
133 1 5.805321185444644 3.396358514070992 9.883765826504371 0 0 0
233 1 7.627776847940252 3.4695695897266874 11.636117845723923 0 0 0
202 1 6.035778377911983 1.3619117691291371 11.73414005914671 0 0 0
205 1 7.567742150696698 24.71848905058561 11.710949090477518 0 -1 0
139 1 11.169633103132982 3.3974846729385355 7.851012090124792 0 0 0
137 1 9.214396292524421 3.401316702319996 9.645023032255928 0 0 0
114 1 11.404238398524262 1.7426531893047261 9.672306387777418 0 0 0
206 1 9.750648624612081 1.6255783170071159 11.562449938748365 0 0 0
237 1 11.19709883883596 3.4997843139919835 11.676890096862671 0 0 0
109 1 9.371646417857352 24.847220724934225 10.088896970874433 0 -1 0
210 1 12.749402923050216 1.5053017344356148 11.681066307355215 0 0 0
141 1 13.168769799982602 3.314821720570077 9.978170598163338 0 0 0
118 1 14.747989596989855 1.4682278931801986 9.780570292183786 0 0 0
241 1 14.577906259366847 3.128500659014562 11.623869189043852 0 0 0
147 1 16.322155453680452 3.422691700052196 9.889597228010892 0 0 0
214 1 16.39447776569402 1.3133322075785498 11.68908267585592 0 0 0
51 1 18.43489845906506 3.2844661084166 8.3920109912128 0 0 0
120 1 20.220643210358297 1.4927970663098975 7.795831119800662 0 0 0
122 1 18.12307034150335 1.4347917611107015 9.900882280813438 0 0 0
149 1 20.027232905815104 3.366499943594234 9.883296192324483 0 0 0
218 1 20.186696969245972 1.2558843170667386 11.689024404702785 0 0 0
245 1 18.237868666750195 3.0907858133623556 11.490373702397802 0 0 0
151 1 21.628490586200975 3.3021155924371413 7.733624487605204 0 0 0
126 1 21.683881111176227 1.6526534720508737 9.771232750249187 0 0 0
249 1 21.639148124801366 3.268169549423298 11.617568486502414 0 0 0
153 1 23.37460045535974 3.219803213118109 9.573362195728876 0 0 0
200 1 23.45187641326492 1.3086417812849824 11.285872010202683 -1 0 0
222 1 23.555936618781764 24.721909595031185 9.681604102871802 0 -1 0
59 1 0.41289285828533273 7.0861746425946235 7.874113346387801 0 0 0
157 1 1.9814668761081125 6.883344466720558 10.088837095441008 0 0 0
226 1 2.106735416865799 5.109925480976264 11.836279376733989 0 0 0
32 1 0.21585552282868614 5.17012218166641 10.074800380155786 0 0 0
253 1 0.2810291549538088 6.873141481265421 11.584684775601962 0 0 0
257 1 4.019123395341304 6.920241832720212 11.61640284453487 0 0 0
134 1 4.032194346307384 4.895540752889254 9.98372969803425 0 0 0
138 1 7.5170479846518825 4.9899715258928845 9.686702999518161 0 0 0
161 1 5.5343057800087445 6.545498449352706 9.624030016756254 0 0 0
230 1 5.630627966131232 5.085796261670967 11.630145261175924 0 0 0
261 1 7.54532092085034 6.96605255489994 11.599368518804676 0 0 0
136 1 9.165641615882128 5.215589423092688 7.530523763998339 0 0 0
167 1 11.01435818276557 6.420579270510595 7.5672774760835235 0 0 0
142 1 11.405446851168584 5.03414791590521 9.817394672052053 0 0 0
165 1 9.368542904653511 6.705426859783161 9.480306635772113 0 0 0
265 1 11.170141634511978 6.66834484273199 11.445318306792373 0 0 0
234 1 8.989395216505716 5.234984232966738 11.596164644923057 0 0 0
169 1 12.530810810540553 6.964279974118124 9.42917981938442 0 0 0
238 1 12.90643464909152 5.149890190427849 12.179037787860633 0 0 0
146 1 14.22874602524236 5.362676715565186 9.84364238749508 0 0 0
269 1 14.942558452019654 6.72928403876972 11.64070325373545 0 0 0
55 1 19.869987634027225 5.116489125984797 7.7734375447886945 0 0 0
242 1 16.556731929699403 4.94619502965045 11.693346724155186 0 0 0
173 1 16.32952665657033 6.738012823184821 9.700925962412452 0 0 0
150 1 18.25476259617392 5.192558900736124 9.88476396559805 0 0 0
246 1 20.006401704110026 5.0372350347904735 11.566967241252986 0 0 0
177 1 19.921834238262562 6.84329413058956 9.158653850796025 0 0 0
273 1 17.994032652360346 6.729071311084788 11.732752825738187 0 0 0
179 1 21.623293840265355 7.203313859235901 7.798144305070778 0 0 0
154 1 21.69495157067523 4.874688683512326 9.796166223495469 0 0 0
181 1 23.396164552235163 6.958736268984917 9.900896956398984 0 0 0
277 1 21.44394715578064 6.975420111589844 11.424400694017837 0 0 0
250 1 23.194901602615317 4.9360582734019385 11.351405583592095 0 0 0
278 1 0.2788329407269937 10.481626035090965 7.894214251773762 1 0 0
254 1 1.832029750812784 8.430805675431143 11.666330136382813 0 0 0
184 1 2.223307627010067 10.807318871691848 9.638829145971503 0 0 0
158 1 0.31149616891234233 8.522169613763104 9.70113902927681 0 0 0
281 1 0.5016278964317343 10.506032665842918 11.174684317585474 0 0 0
283 1 3.630974787717666 10.382593772726612 11.540707095741837 0 0 0
883 1 2.121893179436116 12.34524923076068 11.413967684715413 0 0 0
788 1 4.180773855290227 12.238212793173862 9.435256963538418 0 0 0
162 1 3.866046404135548 8.831080565505737 9.94172181495491 0 0 0
166 1 7.023640143742059 8.199422503368845 9.59240960444557 0 0 0
258 1 5.638533299340695 8.861714377930264 11.781314620000309 0 0 0
186 1 5.823176564522186 10.634697628090162 9.509026902131659 0 0 0
285 1 7.468693036294033 10.275743215520865 11.34531134664508 0 0 0
885 1 5.4935340459230355 12.423425199476176 11.542040673534181 0 0 0
262 1 9.202086856249943 8.42158956452983 11.237184009167574 0 0 0
170 1 11.47036851704829 8.905778052688175 9.852851198420147 0 0 0
188 1 9.513240883044007 10.135606640776743 9.79186487546766 0 0 0
287 1 10.996255885472246 10.705818206720247 11.718566653095282 0 0 0
792 1 10.940671549526952 12.214337891157987 9.432243919466554 0 0 0
174 1 14.296259204801567 8.587366227080734 9.787737117571043 0 0 0
266 1 12.927955370286526 8.884898464689282 11.885060324209862 0 0 0
190 1 12.707521666286691 10.858175533033062 9.94285615023751 0 0 0
289 1 14.565815849641588 10.58747279919404 11.358890573626109 0 0 0
889 1 12.838824739287116 12.11944662221655 12.11447003064634 0 0 0
794 1 14.708288016075711 12.36015296324684 9.992901000864315 0 0 0
796 1 19.976568548236884 11.98630414424661 7.793697415897299 0 0 0
270 1 16.405780031353615 8.626026419661484 11.066296837120664 0 0 0
192 1 16.57874986027089 10.61936572365777 9.573859238395386 0 0 0
891 1 16.483679221897084 12.286421328488592 11.511129334393853 0 0 0
274 1 19.93835957626002 8.779070353713234 11.741606238188409 0 0 0
178 1 18.41467850912231 8.40862876931585 9.86301273979388 0 0 0
291 1 18.403199059964564 10.484709119510999 11.681180767789868 0 0 0
194 1 19.948386765701265 10.48027916606192 9.67873725272427 0 0 0
817 1 18.40526415429124 12.080976694092396 9.787052806518705 0 0 0
84 1 22.303013116791313 10.6061531385915 8.081900105981791 0 0 0
182 1 21.774515229040382 8.915512198453643 9.72094812208488 0 0 0
798 1 23.53363472608696 8.819017006962948 11.442804102943594 0 0 0
196 1 23.783457132570575 10.34879220137073 9.794295219791946 0 0 0
293 1 21.86406458537259 10.507578560542319 11.718095039155859 0 0 0
795 1 22.01785165090702 12.126942808684142 9.580393096568981 0 0 0
895 1 23.586211697302232 12.072224288768817 11.63146157935961 0 0 0
786 1 0.11668113083706289 12.389722810676215 9.639290366331768 0 0 0
801 1 2.1610848701695087 14.17034684716436 9.401672873315722 0 0 0
898 1 2.02112222769518 15.93360722890415 11.579574046269585 0 0 0
802 1 0.14105979544379488 15.54849839466418 9.433854207019454 0 0 0
897 1 0.4885225444724217 13.903700705905502 11.532317825172898 0 0 0
901 1 3.795942078274126 13.988886645426692 12.0371849222311 0 0 0
806 1 3.8571740960228578 16.084628692946914 9.841632804190043 0 0 0
790 1 7.664863908416893 12.080031775806809 9.716571840948749 0 0 0
805 1 5.66053691521506 14.116453706791683 9.610427348786278 0 0 0
810 1 7.414637201618007 16.100655633128603 9.944815905141088 0 0 0
902 1 5.680534017436345 15.567642091539241 11.761896762674152 0 0 0
905 1 7.414050741291794 14.126333352863519 11.531861353514925 0 0 0
887 1 9.701224038878603 12.642766285032911 11.28325958658897 0 0 0
809 1 9.076776669333084 14.109101230915652 9.546888222504448 0 0 0
814 1 11.058511509228182 15.572852880655324 9.75922039413493 0 0 0
909 1 11.615714827340241 14.199815639470158 11.559228289161602 0 0 0
906 1 9.346031233109908 15.44219394873031 11.665563911302565 0 0 0
910 1 12.75104263062111 16.074975126557682 11.518783543152502 0 0 0
813 1 12.889826645575925 13.979326507897127 9.603460893947497 0 0 0
818 1 15.004231756442584 15.548986754382469 9.63945893489861 0 0 0
913 1 14.359927140141261 14.07384389530525 11.687863997347494 0 0 0
819 1 18.243299370183806 13.696682036079247 7.921338217593884 0 0 0
893 1 20.241068171152726 12.21707771249052 11.68946789403856 0 0 0
816 1 16.639143879188687 14.05300256727725 9.759062894408498 0 0 0
914 1 16.677877965834192 15.398372932516905 11.70215755552965 0 0 0
821 1 20.187207176893743 13.780480517698818 9.605841363412868 0 0 0
822 1 18.31538362243772 15.644849376458092 9.747943905993651 0 0 0
917 1 18.412355999360628 13.816298614177777 11.713613357320007 0 0 0
918 1 19.880142288157202 15.474757368185346 11.462555767227428 0 0 0
921 1 21.58988861622653 14.069095296590355 11.973790527434781 0 0 0
825 1 23.232361163084242 14.01528203162706 10.072500281288457 0 0 0
826 1 21.579023220156692 15.695012276708368 9.887492628646651 0 0 0
922 1 23.94753146192103 15.655516932330299 11.926437846080017 0 0 0
704 1 2.076739939505684 17.334836699196273 9.494862994194616 0 0 0
953 1 2.355328826480634 19.627829517997796 11.585954491707733 0 0 0
830 1 0.4413419829183556 19.37508688969033 9.746796521157105 0 0 0
925 1 0.7651150412250627 17.856061732600168 11.3719910375262 0 0 0
829 1 4.055055192036368 19.435402744670377 10.052331508363554 0 0 0
929 1 3.633471289563524 17.59675090486173 11.936459724559308 0 0 0
735 1 4.067886211667528 17.654471404298718 7.892708682091324 0 0 0
739 1 7.318427282039383 17.989187684094247 7.947109627883909 0 0 0
833 1 5.718516316811951 17.622524277364064 9.861948404464819 0 0 0
933 1 7.4935356838365745 17.649350848686574 11.881492139498155 0 0 0
838 1 7.3336335679405975 19.366373997029903 10.136620590372312 0 0 0
930 1 5.599931498156496 19.407539253959406 11.980302819139355 0 0 0
836 1 9.259340613515656 19.278319022466434 7.840615823783649 0 0 0
839 1 11.18018723895234 17.386360517733884 7.995387837421799 0 0 0
837 1 9.253125977697554 17.908966543696494 9.564719958109173 0 0 0
842 1 11.303482011543851 19.379956098035066 9.74384445881324 0 0 0
937 1 10.655496825398568 17.91442176720554 11.677061259593872 0 0 0
934 1 9.057272188133146 19.630405340660253 11.632720395031242 0 0 0
841 1 13.055724954536808 17.57396290569983 9.281407943929963 0 0 0
938 1 13.029035353223966 18.55376783168564 11.580023359559274 0 0 0
846 1 14.553026826472031 19.34380211252366 9.554444213255211 0 0 0
941 1 14.938660036014085 17.31787673728114 11.526030199621829 0 0 0
942 1 16.41467428230461 18.994110381317213 11.560926605990636 0 0 0
845 1 16.5659695720961 17.48340485868586 9.604557128818595 0 0 0
844 1 16.190130728510866 19.42624194311268 7.717753200995123 0 0 0
849 1 20.081191374625234 17.394461596156297 9.716100253077105 0 0 0
850 1 18.338899162890257 19.105897311484583 9.631280712164187 0 0 0
945 1 18.286963237840673 17.43156766288817 11.540977834207967 0 0 0
946 1 20.287090658254442 18.746162459390256 11.508502463525067 0 0 0
853 1 23.938021174833565 17.60921234883906 10.137380469608182 0 0 0
854 1 21.942575595591713 18.986366747101414 9.853499656622214 0 0 0