LAMMPS data file via write_data, version 29 Oct 2020, timestep = 250000

2744 atoms
1 atom types

0.24316003237672668 24.564839967623605 xlo xhi
0.24316003237672668 24.564839967623605 ylo yhi
4.394978100767524 55.270918851964375 zlo zhi

Masses

1 58.933

Atoms # atomic

1570 1 3.8648129496852546 2.153319139200969 6.983123741979128 1 0 1
37 1 1.5547023212810684 2.274741808792642 5.174432573356446 0 0 0
862 1 1.88895464790514 0.7229725438741732 6.776817674623331 0 1 0
1507 1 3.332271534652766 0.3940035429300661 4.724161327603064 0 -2 2
5 1 1.6721826789536258 4.493001096925525 6.723511067176625 0 0 0
198 1 3.6394098377943824 0.5797644850669035 8.535564697768871 0 0 0
103 1 3.4096807236692075 4.31570692184624 8.51577673761835 0 0 0
2164 1 3.8016916149415376 3.715655818119421 5.428754462056431 0 0 0
106 1 6.837436267002321 2.197123718909138 6.838149905603488 0 0 0
1823 1 5.21714203613944 0.42608528877151636 6.525696112463095 -1 0 1
2073 1 5.586537967659853 2.008975226818058 4.829627941301245 -1 -1 0
61 1 5.561271659268507 4.272347150719245 7.127540378863056 0 0 0
35 1 6.591060859325308 4.151277453222287 4.722748110019562 0 0 0
1748 1 7.005369078824202 0.4785671147246563 4.856927445235964 0 0 1
39 1 8.655736893141475 0.9203106946674535 7.061320424099202 0 0 0
131 1 8.394791186300486 2.6319152756204396 4.920684609002344 0 0 0
44 1 9.977126925751543 2.7637643058525128 6.821403192711574 0 0 0
1733 1 10.252322062522373 1.1757999005006892 4.821225465723563 1 0 2
769 1 8.754967384525015 19.449194199308543 4.910682808164999 0 0 0
1615 1 10.065709733650149 4.433010476916356 4.403222285265865 -1 -1 1
31 1 8.316354248511823 4.332822094379119 6.76906456393607 0 0 0
2146 1 11.913880737162732 4.366746542658052 6.47944602530506 1 1 1
15 1 12.12138863990611 0.9007357864340998 6.62362448268337 0 0 0
1388 1 13.71807218661691 3.0629603000208667 6.667929042937354 -1 0 -1
777 1 13.883255232678831 1.0321982532694127 5.263488658232527 0 1 0
1666 1 15.40612536985436 2.8049973658155944 4.975643946257792 -1 2 0
175 1 15.855855694371773 4.23540903594056 6.885458331411359 0 0 0
115 1 13.7416965182313 0.49374008029085137 8.871994425890914 0 0 0
779 1 18.619796332530676 16.72227037800839 5.036056831809076 0 0 0
876 1 15.367857275278448 0.3801362645474734 6.628891380728776 0 1 0
116 1 15.473894501016902 2.415937765266646 8.66177601810957 0 0 0
143 1 13.677528390045124 4.076994259441106 8.760158084870099 0 0 0
871 1 17.11871395902414 2.0776427439545975 6.799256770005837 0 1 0
753 1 19.036949118612903 0.6340727198970577 6.7801968073156775 0 1 0
51 1 17.22050624588873 0.6423016599330456 4.848266393808852 0 0 0
1562 1 18.863103347775017 2.267303137935243 5.121457263393216 0 0 1
119 1 19.21311495838262 4.10655942577692 6.904402921002038 0 0 0
1985 1 17.311838355474094 4.200156147987981 5.062506428757311 0 1 2
1756 1 20.729414976828238 0.40663124653453586 4.763178116300072 -1 1 0
2067 1 20.618897646680665 3.748116509308117 5.356025707551187 1 -1 -1
24 1 21.094264607392 2.094754653622278 7.017572990066556 0 0 0
27 1 22.443690704145318 2.4924099529740733 5.299751608995187 0 0 0
880 1 24.481996255126617 2.5524572570566284 7.042303199962834 0 1 0
879 1 22.701473501232662 0.40875745250813816 6.651758409250842 0 1 0
783 1 24.359972304100722 0.454059343611916 8.469632466736984 0 1 0
2433 1 24.43752756565631 4.444067052820736 4.932530412435227 1 0 0
1 1 24.280041863461328 0.7246031971757283 5.023448172809935 -1 0 0
29 1 3.3403947652058954 7.9277386712717925 4.917598823992419 0 0 0
128 1 3.350798375337105 6.218531242213647 7.172833997290454 0 0 0
1535 1 1.3899283565200573 7.660818700664921 6.741364975333857 0 2 1
32 1 3.127418209102195 8.006094100220162 8.362674030350234 0 0 0
1664 1 1.8085757584150934 5.94065668632673 4.896896600733371 2 -1 2
41 1 7.061888141233313 4.184522749168535 8.844025204970027 0 0 0
163 1 6.554352909608393 6.188460084389684 6.5046531706192665 0 0 0
36 1 5.113207409339033 7.661279138790636 6.876035453641054 0 0 0
2508 1 4.7462632762734005 5.734969299357004 5.164418398147158 -1 0 0
132 1 6.903125457296753 8.028323818498958 4.644175201934224 0 0 0
762 1 5.088351920557583 6.132308983919101 8.718065230284447 0 1 0
136 1 6.968635357809781 7.805276473591447 8.319752344561714 0 0 0
137 1 8.460731569016058 5.9257160748374185 8.659246458148369 0 0 0
67 1 8.371939407142229 7.525464706288955 6.701197600870413 0 0 0
2607 1 8.25981159635366 6.0241651131686735 5.1676703030164735 1 0 1
16 1 10.23867320289296 6.166782167659535 6.892327912366439 0 0 0
1077 1 24.036951785374193 21.756237935029397 16.133732796866596 0 0 0
167 1 10.359664680784425 7.926865106187836 8.257926267814252 0 0 0
168 1 12.277907669075779 7.353406255840046 6.95495907729193 0 0 0
1466 1 12.31222669713114 6.093674850719061 5.014522998668319 0 0 1
2557 1 13.844096307711562 7.519153728606351 4.7448969472853255 0 1 2
43 1 13.936976937490789 5.84263283137331 6.848312416253826 0 0 0
84 1 15.930764922595488 7.3606734884986995 6.808497527975943 0 0 0
174 1 13.853984118174886 7.356917659620578 8.459002807047735 0 0 0
47 1 15.962015092372429 5.499884994559179 8.781307514254902 0 0 0
1414 1 15.243458108904026 5.668361122863995 4.9243088413007845 -1 -2 1
83 1 17.54753684741855 5.641079749905039 6.66347384501425 0 0 0
1640 1 19.174346433567756 7.097150063366518 7.108156779188722 -1 0 -2
1516 1 19.366574500355007 5.772691786720206 4.775839153164358 0 1 2
172 1 17.27673611355482 7.243301129252879 4.9668654338728775 0 0 0
28 1 20.7831754526676 5.628275886618451 6.809974442175706 0 0 0
59 1 22.25343672719123 5.5659085771009575 4.987566642841754 -1 0 0
2398 1 22.702401999020672 4.257323448516769 6.997622595192899 0 1 1
2087 1 24.323640605992928 6.094482075671778 7.25529860876868 -1 2 0
690 1 24.127350141830583 7.134917665780379 5.202779719960095 -1 0 0
152 1 22.37160418021562 7.261292340156789 6.741849244105306 0 0 0
127 1 22.197772401410326 5.682198298046523 8.825442700469594 -1 0 0
157 1 23.71232192858387 7.7196082108972774 8.833227761096055 -1 0 0
2615 1 20.94811079421445 7.659686965404823 4.748005001364506 1 0 0
159 1 3.074594575784352 9.537747696765313 6.7067342040931255 0 0 0
1567 1 1.615226905000264 11.168615814155604 6.6796536635599075 1 0 -2
60 1 3.578679881582426 11.501187365478346 8.486098910546424 0 0 0
295 1 20.530193716815646 23.385502264188453 14.210434811628613 -1 -1 0
2600 1 1.688862772063335 9.41676646686606 4.755615281201136 1 2 2
785 1 24.181750127704476 11.153669433307543 8.372242651181445 -1 0 0
90 1 6.98843529060855 9.59156045896141 6.31200113239206 0 0 0
72 1 5.208852882223257 11.246029681035905 6.821199102717365 0 0 0
705 1 4.78502238357159 9.76447342112881 5.186575827820783 0 0 0
1380 1 7.168504373219523 11.265514630726242 4.832612939256149 -3 2 -1
187 1 6.9441683904247995 11.191634914931782 8.47479545173988 0 0 0
2635 1 9.239889374212924 10.971750966253607 6.399399053953779 2 1 -1
160 1 4.988313903675549 9.388849104805375 8.626788724262846 0 0 0
2575 1 8.886348116967438 9.094148519143323 5.08751974919855 0 0 2
2148 1 10.518319321546869 11.568341162079285 4.591346157069275 1 0 0
710 1 10.675211492852497 9.16231850223172 6.752861888966166 0 0 0
93 1 12.323093927755002 11.15702186485338 6.690774824155094 0 0 0
1714 1 11.69404816457096 9.310921885197924 4.672919471361603 0 1 0
692 1 10.448422471082443 11.212768386104832 8.514985758565851 0 0 0
164 1 8.770464235342192 9.416359343060392 8.635432966554689 0 0 0
189 1 12.353129680177476 9.676658945367961 8.580806879382617 0 0 0
1694 1 13.949478183596273 10.81501841360744 5.144409032762665 1 1 0
1707 1 15.676934642220877 8.883293939757499 5.009513401361951 -1 0 0
2719 1 13.764953409672568 9.039790474342208 6.468711399772712 -2 1 -1
171 1 15.729688591373554 10.85730025967555 6.782075731013496 0 0 0
139 1 15.91523023890594 9.02862438515294 8.48050859110173 0 0 0
1997 1 15.617075820086269 12.68762876060486 4.826904334341673 -1 0 1
76 1 14.267751235218231 11.049305005152952 8.29272750224797 0 0 0
176 1 17.19720118190711 8.938564445617674 6.906857394117064 0 0 0
1412 1 18.89865856836736 10.77745386796306 6.598354695628691 -3 0 -1
2113 1 17.294335586588964 10.974142014091955 4.959485799061172 -2 -1 -1
1029 1 22.150183181151185 23.620750136413115 15.975522614907307 0 0 0
799 1 20.70626281752861 9.676364962640932 6.727965603037708 -1 0 0
193 1 17.339204200555102 10.900457262459376 8.460435201423369 0 0 0
688 1 24.487404489038525 10.927313107935833 4.961551688073005 -1 0 0
687 1 24.24836416196407 9.220342533506921 6.72872101792162 -1 0 0
180 1 22.071236392313054 11.422156290100677 6.559860768098149 0 0 0
57 1 22.673446864089733 9.242403012851387 5.082919867654743 -1 0 0
1834 1 20.561099080824228 10.933106356928496 4.8240734841367985 0 1 0
699 1 20.359828735230202 11.040664743930606 8.797486767651158 0 0 0
64 1 22.38379003325035 9.618260247317435 8.446207067174456 -1 0 0
185 1 3.243073806782684 12.88550224793439 6.686103174700957 0 0 0
2691 1 1.6585625969298097 13.098903362946139 5.011400384314769 0 0 -2
2707 1 1.4882654575816086 14.510035920693289 6.7459482669859305 2 0 2
2412 1 1.2239440544143187 16.654126389505997 4.9714746641655765 0 -2 -1
1514 1 3.086808702876416 16.141754245050898 6.993423898474686 0 -2 -2
703 1 3.2251238444558608 14.571635045908735 8.74862480776595 0 0 0
827 1 3.1613804859979284 14.960218649623464 4.736830611600615 0 0 0
1464 1 6.907787144211798 14.847608736447745 4.929169835872955 1 -2 0
1629 1 5.134642800860427 13.307518131264818 5.181152467432516 -1 1 0
1432 1 7.210259236576894 12.440480571881908 6.655273545692442 -1 0 -1
805 1 4.9846904992175425 15.00569147801596 6.497947117073698 0 0 0
706 1 6.904110304344205 16.3510610477255 6.5549543749767984 0 0 0
707 1 4.860060060815488 16.385510444294276 8.353094619198421 0 0 0
807 1 8.594492068415619 14.547154834550716 6.864971965779576 0 0 0
733 1 8.623303994762445 16.07786344950097 4.8219029272219025 0 0 0
711 1 10.851020867250707 12.783099525098647 6.527336755214387 0 0 0
2012 1 11.931420555029824 16.082958173614816 4.8103114481601565 0 0 1
1777 1 12.47489857285821 12.5160937889867 4.786578533356268 1 1 2
791 1 12.299439540021643 12.736705621708936 8.506288513431542 0 0 0
2522 1 10.08273873647852 14.41861633625856 5.163485433059571 1 0 1
715 1 12.274689922835913 14.490046418001455 6.629753754394054 0 0 0
811 1 10.535272710254414 14.667297523499759 8.681439157699424 0 0 0
789 1 8.83186237745197 12.914608607903752 8.419957445061435 0 0 0
1949 1 8.567635767334878 12.918712841620744 4.681027527286967 0 -1 0
75 1 14.249642771619108 14.800747177827585 5.130910644032985 0 0 0
191 1 14.0051992971717 12.870986380466253 6.9552485663653645 0 0 0
720 1 15.772861949455079 14.32637599438037 7.037023044980052 0 0 0
815 1 13.748846265627417 14.538448019274435 8.926254952167474 0 0 0
2396 1 15.7166013839036 17.129911394169184 4.755568542159348 1 1 0
816 1 15.976852991488993 16.142032108574348 8.349494642762027 0 0 0
696 1 15.984703847889318 12.677961056518406 8.781196525597315 0 0 0
2704 1 17.206225689781064 12.726303292398526 6.822384609739206 -1 0 2
1973 1 18.910786462056016 15.206515717127203 6.692708856519253 1 -2 2
2676 1 17.09836423349875 14.830920449869023 4.931352291132293 1 0 0
78 1 19.052354657016316 12.740093638151718 5.151470069064942 0 0 0
698 1 19.22144765195071 16.335229805825534 8.773580485993968 0 0 0
793 1 17.743918084849177 14.505697823928347 8.547952067458603 0 0 0
721 1 15.283119031806796 20.061361978121205 4.90690964990727 0 0 0
819 1 17.074221751080017 16.45047781088371 6.765541584843037 0 0 0
723 1 20.269403311312622 12.905000941739921 6.977833164738339 0 0 0
701 1 24.081597887423065 12.849024334132979 6.666485871371818 -1 0 0
96 1 23.989794574521675 14.754969937499773 4.900512817232482 0 0 0
2692 1 20.78595482570762 14.882204317430883 5.417412640781995 -2 -2 1
156 1 22.639564687579863 14.67059594427241 6.941366597020438 -1 0 0
1658 1 22.283381530484156 13.022647473217159 5.154070682027124 2 1 0
2483 1 22.617241853573717 16.818723868184392 5.028631751818951 1 2 0
797 1 22.945603245909616 12.877194856872649 8.627090034740046 0 0 0
823 1 24.240128417096216 16.42938251528949 6.90018726136077 0 0 0
1488 1 20.853925437588018 16.78235893763126 7.097372334646574 0 -1 3
704 1 24.359507241827338 14.654109321454287 8.411265937958317 -1 0 0
1761 1 1.6823800378296738 19.32432907244702 4.9675263141079435 2 0 0
856 1 3.335560150772818 20.0167922867236 6.654737858140809 0 0 0
7 1 1.5031260157629545 18.244396192720224 7.146154602381746 0 -1 0
1524 1 3.3998819759845684 17.537087436788404 5.110521779216398 1 -2 0
828 1 3.4729782222422725 18.279368080329526 8.323855554757449 0 0 0
830 1 1.6647529957494254 19.64462231099158 8.77253622727174 0 0 0
2341 1 5.126068054168082 16.12524491640906 4.441349352987719 -1 0 -1
735 1 5.071982375074925 18.297718995819984 6.556112533853085 0 0 0
45 1 11.943016540442027 2.761593996477579 4.953479957715949 0 0 0
763 1 7.083963381652319 19.685923181500826 6.70458454152995 0 0 0
2740 1 5.331030179997303 19.976518249039536 4.70064672402331 2 -1 2
831 1 4.726708104215194 20.135349595079916 8.73311669966925 0 0 0
863 1 6.646267352237368 18.213572346532807 8.282296397854978 0 0 0
2504 1 10.525137811357071 16.56502172666977 6.597558792426185 -2 0 1
839 1 12.182398962537468 16.231421830175194 8.399916296763642 0 0 0
11 1 8.473858909264287 17.934327483364484 6.455980376089454 0 -1 0
88 1 10.427037930246724 7.434613673601716 4.632072412506349 0 0 0
744 1 9.886844177892696 19.45558370540654 7.0286184586785945 0 0 0
694 1 12.213733995307171 18.28895627617807 7.046892907837631 0 0 0
2530 1 11.815979698831773 20.15929260973541 5.052958746207366 1 1 1
836 1 10.4817054831365 17.857621769235095 8.637170391421026 0 0 0
840 1 11.837578322710616 20.098187460197593 8.472786705088739 0 0 0
767 1 10.559722893435989 18.09290353578143 5.159970744335904 0 0 0
832 1 8.59873288654344 18.98030766263301 8.779215488504857 0 0 0
812 1 14.039019643995896 16.533381763579435 6.750598997851805 0 0 0
716 1 13.398648281142476 18.410544811932233 5.119566644141594 0 0 0
780 1 17.004169287539604 21.85451927813041 4.756661724417321 0 0 0
748 1 15.700231916229125 18.275666913798723 6.632031377089033 0 0 0
774 1 13.758035349410951 20.13784897772492 6.602492388472495 0 0 0
843 1 14.300136014168322 18.106083010184953 8.58969918381367 0 0 0
1463 1 19.20706897682441 20.05500550580198 4.656901271781489 -1 0 -2
2126 1 18.734975209900128 17.902915887452046 7.178983954957408 1 2 0
2118 1 17.52051849396998 20.143597430036742 6.972695167821776 -1 -1 -2
1990 1 17.46881468979354 18.08020984401348 8.964743180866504 0 0 2
749 1 17.264334021296236 18.799430422052524 5.2656778319385715 0 0 0
731 1 24.015617196365078 18.375215929405705 5.3340827392041765 -1 0 0
1983 1 22.217300122867847 19.883892860733198 5.048496252407481 1 -2 1
851 1 24.31184094753614 19.9647049708 7.022400573818557 0 0 0
848 1 20.583391165578327 20.15585124971694 6.614093499043876 0 0 0
2201 1 22.438560411479827 18.48074914803474 7.351726067054509 -1 2 -1
756 1 20.467796095649774 18.203351954254522 5.280658430541077 0 0 0
2221 1 2.906888564066499 21.74173872999343 4.739755532063433 1 -1 0
765 1 1.4534798843628376 21.739517522561883 6.51520062160647 0 0 0
764 1 3.5155524852570865 23.18255952299976 6.788666981219412 0 0 0
1523 1 1.449230900959621 23.323374602378806 4.817180867191375 1 -3 -1
759 1 2.9823234514763297 21.71960976266542 8.654907916167113 0 0 0
736 1 5.195771190584245 22.814954517808786 4.64411136291997 0 0 0
2386 1 6.853413434501302 21.658132215192403 4.712842830782194 1 -1 0
741 1 5.090008350456522 21.541102152637905 6.33282620840145 0 0 0
859 1 6.807646558541943 23.293711265210035 6.818511907482142 0 0 0
101 1 5.198710177371684 22.79147664533859 8.40821212281196 0 -1 0
838 1 7.1490998089712425 21.3299843458582 8.363967305003552 0 0 0
111 1 8.615401601827292 23.39217072038131 4.8985690256913195 0 -1 0
9 1 8.708191518668087 21.36508668108607 6.595009626113872 0 -1 0
2416 1 10.607340491916146 22.050432426840914 4.893638421775711 0 0 1
10 1 10.353756408452757 23.879720213359768 6.4517800083294965 0 -1 0
868 1 11.400209308082605 23.330594176879494 8.742321609772922 0 0 0
864 1 9.961007698507842 21.11163335547026 8.679990451855218 0 0 0
872 1 12.433610582997614 23.58150615252712 4.776147323891598 0 0 0
2242 1 11.429362948911992 21.73391150374711 6.918254274471643 1 0 1
14 1 15.188581975076456 23.24383503937873 4.888504485615052 0 -1 0
1673 1 13.206812409388029 23.02183572574394 7.023481530002195 0 -2 1
747 1 15.760674034223564 21.515647720140635 6.496289945121282 0 0 0
770 1 13.5841804028606 21.65654928817323 4.807608658957264 0 0 0
847 1 17.146403884663215 23.200014324874317 6.643369214510675 0 0 0
852 1 18.936349363230157 21.64950395338655 6.656544747182977 0 0 0
86 1 3.2106799804589645 11.387647428807709 4.88723195861241 0 0 0
1776 1 18.753426784865454 23.090844001686847 4.911543150385828 2 -1 1
2463 1 20.574162012563647 21.648916446098738 4.745076523068446 -1 0 1
1532 1 22.812941875932033 23.136287789574524 4.915141723546569 2 -1 0
746 1 20.751216720292277 23.496689060343456 6.857609587365253 0 0 0
2401 1 24.51962228005083 23.56958720632671 6.630233828862307 -2 0 2
1552 1 22.718744831577247 21.56688564993125 6.531913092860893 1 0 -1
2236 1 24.32015187851443 21.150960205047035 4.870824505675065 0 1 1
855 1 24.113178812659164 21.849583759404155 8.438886294600623 -1 0 0
760 1 1.9045846209638764 2.2819644045934786 8.602678772550213 0 1 0
99 1 3.4534092109786396 2.3827159350491462 10.453600951979269 0 0 0
222 1 1.6142960387495195 2.0740844285349116 12.369305683260844 1 0 0
954 1 3.4705424773649898 0.6094203477894962 11.992325256692862 0 1 0
860 1 1.5662507475755432 0.7726361689249752 10.16497575255502 0 1 0
227 1 3.362406453583946 3.9926642615633687 12.337493737038532 0 0 0
3 1 1.6127386788496896 4.060437199766079 10.436812195531571 0 0 0
105 1 6.909370426353427 0.502942700748631 8.509668645206888 0 0 0
107 1 5.333988552210888 2.2686912454041006 8.774564230076992 0 0 0
202 1 6.893460973207992 2.3763055020613644 10.625233741032138 0 0 0
204 1 5.199698719006176 2.327782614949099 12.293638145245092 0 0 0
100 1 5.448744250932156 0.3000561723666731 10.544900057435932 0 0 0
205 1 7.179650388814043 0.5638029442045709 12.242748292757238 0 0 0
229 1 5.360290091891908 4.10257197275164 10.260741295127897 0 0 0
109 1 8.529257364712263 0.6190120276349886 10.125732658687689 0 0 0
42 1 10.415599778575675 4.129519494269955 8.567256540776892 0 0 0
206 1 8.796516562976503 2.2779189707837046 12.127329793575285 0 0 0
2264 1 11.981413841346338 2.4042353347136474 8.223293994742503 -1 0 0
113 1 10.319772645420494 0.7861129491321354 8.553379214193214 0 0 0
110 1 8.901648135226926 2.5268846819006767 8.771821337358496 0 0 0
114 1 10.39683305334887 2.561062948053078 10.366373908099357 0 0 0
210 1 12.016986040417617 2.3581124340455824 12.056253474890646 0 0 0
209 1 10.132174613378526 0.5604804887585404 12.29956115222036 0 0 0
874 1 11.934206815102769 0.6624069573289342 10.778629616442565 0 1 0
112 1 12.053730994192708 4.403816161810368 10.079466310852615 0 0 0
233 1 8.72653916222268 4.08148946853523 10.676050718761584 0 0 0
237 1 10.522170005734372 4.559814145849742 12.374939377598714 0 0 0
118 1 14.136436747615772 2.4287185939550686 10.351804349126601 0 0 0
214 1 15.073784066371642 2.52527320401532 12.82864871227275 0 0 0
117 1 15.477997018510699 0.6013589094043674 10.501397637649598 0 0 0
213 1 13.806324802699258 0.5511887955516064 12.330949171362354 0 0 0
145 1 15.343692598832465 4.140287464917113 10.95419324712049 0 0 0
241 1 13.524070342808358 4.014309463740249 12.273441121741445 0 0 0
144 1 17.567817459761564 3.8673907296412686 8.88935972992183 0 0 0
147 1 18.91711085087948 2.274987956278974 8.343350388093015 0 0 0
19 1 17.23714756052334 0.39187866882839606 8.582440549723426 0 0 0
122 1 16.858271986937673 2.421998071988493 10.750261782875295 0 0 0
224 1 18.52639499630454 2.377933763505735 12.49684855735757 0 0 0
121 1 18.339112850066357 0.6121486077790912 10.708539652925399 0 0 0
218 1 19.066459903054223 3.2904229452545395 10.450659167715031 0 0 0
245 1 17.059434878533537 4.382514843028241 12.551286062469819 0 0 0
124 1 22.675740207562995 1.7051124877074144 8.864680872319745 0 0 0
752 1 20.186411161407456 0.6176555390848644 8.762101136734305 0 1 0
882 1 24.26266803812102 0.6205018814963128 12.198754021932615 0 1 0
125 1 24.415035647971507 2.2978436893963483 10.63142999149786 0 0 0
149 1 20.667090589086804 1.781370964906704 10.497816717691464 0 0 0
126 1 20.25115681362948 0.6187187962204836 12.372405400321814 0 0 0
251 1 22.605281363682856 2.5604743347213104 12.155367457071206 0 0 0
123 1 22.458883109958244 0.3748938705077614 10.769511155433431 0 0 0
2173 1 1.8654441183943413 6.299249227943737 8.969990192203264 -2 0 -1
102 1 1.5619150058485198 6.161991272618097 11.994342045914944 0 0 0
226 1 3.5470798421559415 5.720275913640405 10.437267909077523 0 0 0
257 1 1.4906345309302442 7.814431010891342 10.435125003010327 0 0 0
162 1 3.3991644088970103 7.544560354348893 12.424356941848888 0 0 0
230 1 7.087739712822661 3.9969430738920093 12.340541813777191 0 0 0
138 1 6.859817022266668 6.027448060973181 10.097739049408743 0 0 0
161 1 4.968808488069176 7.497807532252923 10.59099928329972 0 0 0
134 1 5.309530760792938 5.848145260673907 12.050257529293557 0 0 0
261 1 6.847895073014131 7.655090076091715 11.822715306605625 0 0 0
141 1 11.752245145742567 5.862608093887158 8.407144563595097 0 0 0
165 1 8.805260964645303 7.722494025706178 10.089376955835187 0 0 0
234 1 8.340615147283321 6.068618198938226 11.865747845403064 0 0 0
142 1 10.31344923868429 5.71755615144474 10.353033242249285 0 0 0
265 1 10.581253134089073 7.805158114036321 12.275763861968596 0 0 0
238 1 12.262899036905978 6.143319255227803 11.845181494291955 0 0 0
169 1 11.97220645361961 7.471835102640863 9.781305250521182 0 0 0
146 1 13.827615822789866 5.86381568923136 10.45870500815196 0 0 0
242 1 15.640926092027405 5.9730581242695635 12.514574512505407 0 0 0
269 1 13.778817543140267 7.732234849819479 11.729040939008605 0 0 0
173 1 15.710128310640373 7.465585310134572 10.483043563017908 0 0 0
177 1 17.481359590821967 7.10868259791453 8.863131511198661 0 0 0
148 1 19.366079965727522 5.55250883074052 8.771291947684913 0 0 0
150 1 17.466798867844105 5.53445456579547 10.648487624096358 0 0 0
179 1 19.24146395427158 7.30093631205237 10.592775993621263 0 0 0
246 1 19.11932439317252 5.44787110057806 12.237309401762317 0 0 0
273 1 17.560065373051245 7.365733228145309 12.235382196582897 0 0 0
130 1 24.106884361306285 3.9825596296010985 8.946223057970169 -1 0 0
8 1 22.247017501921086 3.7518404515647594 10.367802784003743 -1 0 0
98 1 20.85570967165004 7.642589180484093 8.51340363993248 0 0 0
153 1 20.73516143226967 3.548832281222831 8.640495127297148 0 0 0
129 1 24.290160416188392 4.209720532636796 12.070677600375625 -1 0 0
154 1 21.12144336898305 5.705654656327458 10.465411286473877 0 0 0
249 1 20.583280477606515 3.4268599221013893 11.976783589576755 0 0 0
158 1 24.050920663614193 7.1443885356519345 12.419483968643206 -1 0 0
277 1 21.270401905591015 7.234804164913321 12.43372333899969 0 0 0
155 1 24.245310103235134 5.7778210853180205 10.388662375914919 -1 0 0
181 1 22.054970948030522 7.676117751108904 10.364274783702385 0 0 0
250 1 22.471975125866045 5.368408059063392 12.308882422351328 0 0 0
66 1 1.4109901109272347 9.39640892707523 8.628436262833658 0 0 0
787 1 3.1313542927346982 9.155534221946397 10.484329284671059 0 0 0
184 1 1.8140354633783153 11.152338822094581 10.405150276731074 0 0 0
283 1 3.3275666989739743 11.224784872722593 12.393249194976946 0 0 0
254 1 1.4982095620570606 9.439715697337665 12.015211029117507 0 0 0
186 1 5.327111504459268 11.101325944878708 10.408346462794546 0 0 0
258 1 5.120274664982212 9.6953484334649 12.362183635798633 0 0 0
166 1 7.065803069902097 9.362616205739686 10.417539059574628 0 0 0
285 1 6.89476237707713 11.207785254907797 11.996357576633379 0 0 0
188 1 8.744840961229961 11.235668779849478 10.350349767757855 0 0 0
262 1 8.797831061590703 9.38904048169765 12.359163985456274 0 0 0
170 1 10.296440512285445 9.25815438614986 10.503081701259278 0 0 0
287 1 10.241317171353819 11.244106486481074 12.155375286540696 0 0 0
190 1 12.390946211459303 11.270542617625855 10.309137551805705 0 0 0
266 1 12.138484013940134 9.458501808586474 12.208999294398168 0 0 0
140 1 13.839338077478399 9.40352996614319 10.075790877480962 0 0 0
192 1 15.763742262364534 10.659299479331743 10.318150316195489 0 0 0
289 1 13.952519421107358 10.765426207549007 12.112267632085771 0 0 0
270 1 15.694787555469176 8.459693896141843 12.38240940133472 0 0 0
195 1 18.886630403874307 9.185602550046431 8.388233724205973 0 0 0
178 1 17.59898104968258 9.25940230092984 10.303629683363027 0 0 0
194 1 18.63760808156119 11.15304235293797 10.417968491170939 0 0 0
291 1 17.396125547623427 10.693881352803382 12.500499780395753 0 0 0
274 1 19.24753784258092 9.360242440547513 12.21354053515931 0 0 0
182 1 20.456322304314412 9.216126682044385 10.35690493920331 0 0 0
293 1 20.514759410951335 11.232415869084146 12.173600295140293 0 0 0
281 1 24.203495446854724 11.012299961492285 12.29542695863235 -1 0 0
196 1 24.067539695093892 9.688093284708266 10.35892010527277 0 0 0
786 1 22.375584464087318 11.35475201343687 10.408511420549168 -1 0 0
278 1 22.05064561329786 9.520203132162605 12.065072266444918 0 0 0
801 1 1.3005912477651083 12.736431783346575 8.769930080083249 0 0 0
883 1 1.5646228888365896 12.813778332284741 12.061851187750811 0 0 0
788 1 3.252160929078654 12.81476694259544 10.445102437314313 0 0 0
901 1 3.357601952854353 14.216133671817374 12.152915363151754 0 0 0
802 1 1.4337884886627437 14.586232878166262 10.574067379574055 0 0 0
806 1 3.1986525131117003 16.158895264568887 10.815763240240159 0 0 0
898 1 1.4293757106543297 16.34567237317006 12.258270204962557 0 0 0
825 1 23.96435115511356 16.497434150956742 10.63907821277374 0 0 0
183 1 5.261787750251875 12.852787756018758 8.72334361391213 0 0 0
835 1 6.854969009808271 14.853991957574946 8.583097495480217 0 0 0
790 1 7.191088656521014 13.022217974881833 10.369631647542738 0 0 0
885 1 5.10104720256638 12.75420504084908 12.20490535967131 0 0 0
803 1 5.47803546248936 14.867292247995723 10.550592998830421 0 0 0
905 1 6.868574538145275 14.472848049917527 12.18373665460439 0 0 0
810 1 6.82832720777768 16.60100403163497 10.077802805672828 0 0 0
809 1 8.747682967346305 14.98129045333773 9.924746506518302 0 0 0
887 1 8.49941404847366 12.764799489636 12.304369947079053 0 0 0
889 1 12.202459958520558 12.720298493479818 12.176877787682562 0 0 0
792 1 10.302036257405971 13.11331233669302 10.486054216597298 0 0 0
909 1 10.525328332092268 14.304242658122753 12.479266646450899 0 0 0
910 1 12.295163069403849 16.457752439522572 12.51186163329251 0 0 0
814 1 10.959971714139245 16.332285534660265 10.433841435367423 0 0 0
906 1 8.870352644091456 16.207246841109995 12.558665421996391 0 0 0
813 1 12.149429176420366 14.438103468338108 10.569958986661502 0 0 0
794 1 14.315874188264518 12.540128661143696 10.42400028548687 0 0 0
817 1 15.758006769582089 14.255764125599505 10.39699301109923 0 0 0
891 1 15.75506042303686 12.426512907728107 12.391551896982557 0 0 0
913 1 13.949423933203333 14.61013511425154 12.45224039944748 0 0 0
795 1 18.875895533995987 12.716678717944431 8.739319740928783 0 0 0
796 1 17.092528716065743 12.76607463638672 10.72947855200676 0 0 0
893 1 18.81853203893752 12.872940016489675 12.388119886994929 0 0 0
821 1 19.32367425170886 14.722255556129307 10.446806448412929 0 0 0
917 1 17.194922398054644 14.684107773767899 12.525955295007368 0 0 0
918 1 19.08233511392757 16.18307499533168 12.274143644657297 0 0 0
822 1 17.69948134937661 16.275222030050976 10.45632194677825 0 0 0
700 1 20.97414676491752 14.60808065705288 8.33946882273273 0 0 0
853 1 22.22336351237881 16.44093525245058 8.926427773445095 0 0 0
895 1 22.26322098886225 12.754526360896728 12.098119687452634 0 0 0
798 1 20.63872487637604 12.732418596427044 10.138007368577874 0 0 0
921 1 20.411288739596635 14.388397254218217 12.284259174356105 0 0 0
897 1 24.338421627525612 14.447581576035066 12.401978561288598 -1 0 0
727 1 24.098010069258912 12.913229030423897 10.604636688582772 0 0 0
800 1 22.331533717503163 14.544091477023516 10.385163514214087 -1 0 0
826 1 20.69210057877838 16.538038657270334 10.618894221826746 0 0 0
922 1 22.274699870480447 16.082100695901868 12.239223871893486 0 0 0
708 1 1.7447493504554474 16.388570802522807 8.954934514740174 0 0 0
804 1 1.612669455811278 18.0752234054304 10.657601589927438 0 0 0
834 1 3.2722608409725606 20.17885293608507 10.679758326316438 0 0 0
929 1 3.2513192694542377 18.203989150877305 12.418832171637906 0 0 0
926 1 1.5570238409707147 19.69080526637611 12.484956562951508 0 0 0
925 1 24.10502607352153 17.971131193753124 12.522184015568227 -1 0 0
902 1 5.043649452297307 16.441662114646952 12.349274402289547 0 0 0
861 1 5.133219200358102 19.653143686689248 12.203570283994058 0 0 0
833 1 4.649538653131985 18.093467378644895 10.201819530894081 0 0 0
933 1 6.932867074804924 18.005937420314602 12.093702179611022 0 0 0
930 1 6.732426263839358 19.645865719796596 10.071737590624595 0 0 0
808 1 8.611089530049012 16.159141900829795 8.073080551120915 0 0 0
934 1 8.65748860982935 19.319702723823788 11.921410569632528 0 0 0
837 1 8.632816636192896 17.375912704105737 10.327277870065757 0 0 0
842 1 10.328660884241526 19.508573231935344 10.38025709708219 0 0 0
937 1 10.343531405583668 18.085484518711702 12.26787084050963 0 0 0
841 1 12.260585212754387 18.299060455958816 10.494690873542725 0 0 0
938 1 12.36232906932384 19.836877197351747 12.261772838721761 0 0 0
844 1 15.407452763853907 20.008068997539354 8.222201717576226 0 0 0
914 1 15.763706977743944 16.045429745009734 11.959915990036272 0 0 0
818 1 13.689468492816918 16.117671022441485 10.146400347284281 0 0 0
845 1 15.648237335416695 18.11498192196982 10.761040335874483 0 0 0
867 1 13.775625313676095 19.869368323345746 10.527244730906691 0 0 0
942 1 15.411675875161071 19.73983496994193 12.312140883865222 0 0 0