LAMMPS data file via write_data, version 29 Oct 2020, timestep = 150000

2016 atoms
1 atom types

0.41732326833202116 20.846676731668246 xlo xhi
0.41732326833202116 20.846676731668246 ylo yhi
0.9737542927751477 48.64224570722424 zlo zhi

Masses

1 58.933

Atoms # atomic

8 1 3.9611992932510787 2.5961531495731096 2.9496708088261285 0 0 0
146 1 2.3814005154434144 2.3829380565992615 4.853935122015076 0 0 0
27 1 2.3762361544009734 4.155967358281503 2.853175029481657 0 0 0
173 1 4.233151779828052 4.060323635745677 4.826929261683132 0 0 0
169 1 1.2792581567783454 4.303393847295162 4.905777949726883 0 0 0
3 1 2.208155102384201 0.9100615551880912 2.8503338182228513 0 0 0
145 1 0.47690055649270746 0.7426877665105484 4.477981930499687 0 0 0
149 1 3.9705470301659327 0.7512345137418412 4.586579416988794 0 0 0
1805 1 17.75446713365806 17.954131624367946 1.4270889570255585 -1 2 1
4 1 0.7745921145338105 2.208567402558696 2.4471201291549933 0 0 0
126 1 2.7099158004353887 19.344525392568613 1.0967720514010186 0 0 0
432 1 17.789911714070236 19.224126047938185 9.78267466558396 0 0 0
12 1 7.230062064002605 2.2454280939743136 2.6544198374005648 0 0 0
31 1 5.917737727432163 3.9465447758397882 2.678192703952413 0 0 0
177 1 7.247508316391376 4.006305797857731 4.640463536866475 0 0 0
153 1 7.4508507435168765 20.7837224958201 4.501701987870199 0 -1 0
150 1 5.692105521850257 2.3483073076139696 4.470148236536886 0 0 0
7 1 5.565574448735333 0.6002637498406965 3.157047133371564 0 0 0
90 1 12.567159205675402 9.190697293818584 1.0251982846491652 0 0 0
5 1 4.283079509804319 0.7521562365799765 1.2749085881669637 0 0 0
97 1 19.547819122730722 12.270497709047909 1.4875220820114796 -1 0 0
16 1 11.134243234831397 1.9273564735255946 2.7094543211322732 0 0 0
35 1 9.206919030995122 3.61368787598542 2.632579742647185 0 0 0
11 1 9.380931138518442 0.4248688347293479 2.8459104039428 0 0 0
15 1 12.651732726810721 20.744718057841723 2.857501184522406 0 -1 0
181 1 10.75614416508352 3.8904216973645016 4.368964981706425 0 0 0
154 1 9.105748007483927 2.1365643351607018 4.23961316929337 0 0 0
157 1 11.009030335350772 20.754331185281472 4.469815016271854 0 -1 0
34 1 9.227118079706825 5.539940928779749 0.9999694557594678 0 0 0
141 1 14.713189939324103 17.5094132495272 1.02755105679496 0 0 0
1488 1 12.181761780536533 4.031117501266003 2.8385784036793384 0 3 1
48 1 17.64666418116711 3.918339123929482 1.091822773695689 0 0 0
158 1 12.793513051851926 1.9121841411903486 4.604004548605177 0 0 0
20 1 13.69653176175141 2.434221087407163 2.6482534430035995 0 0 0
185 1 13.79503254554723 3.815672472618832 4.458451992354366 0 0 0
41 1 15.723590444225403 3.7110021954532755 2.921981045203445 0 0 0
161 1 14.323182485442087 20.76133568041063 4.592008903013648 0 -1 0
162 1 15.772186534618413 2.1024533491704505 4.613252699625432 0 0 0
110 1 7.436563856100679 17.564119687662355 1.6604311906859728 0 0 0
503 1 18.02643006508528 17.61348240577498 11.62211641153873 0 0 0
431 1 19.795734904838092 17.736432596200565 9.837534649011447 0 0 0
14 1 16.075025525983857 2.529928402791037 1.4810250281361954 0 0 0
43 1 17.66318318827372 2.1654361126990294 2.898006294609126 0 0 0
47 1 19.332995626340995 3.8975711156016004 2.7038202890426506 0 0 0
166 1 19.64524194427416 2.6426990506655432 4.434970966490706 0 0 0
23 1 19.348903376874325 1.066853264300528 2.848715603896938 0 0 0
189 1 17.869398485315152 4.225088527288362 4.548235205418642 0 0 0
1999 1 2.556147976820261 12.647697818306163 1.0393077799618944 1 1 1
51 1 2.3571383987267875 7.429936486936863 2.971487584990575 0 0 0
170 1 2.489293095095329 5.995566079883974 4.619113857986379 0 0 0
32 1 4.3690730939125 5.548648720249905 2.811771850751178 0 0 0
197 1 4.150777137855659 7.476723987571051 4.758545737191782 0 0 0
28 1 0.5787452443763846 7.194889518954482 4.571313870119397 0 0 0
2 1 0.9093201640882469 5.661705411322378 2.7722744859611184 0 0 0
1759 1 9.334187886979203 19.161098303599168 1.4054950655663958 -3 1 1
36 1 7.434637963075123 5.668671776825367 2.7584921964954043 0 0 0
201 1 5.942112227577064 7.493092652115162 2.5786682118340134 0 0 0
174 1 6.058963562612114 5.823172685827267 4.703254095949255 0 0 0
60 1 7.604339942769869 7.6247091417785855 4.4277873093641285 0 0 0
10 1 16.061943210082944 5.662422196161307 1.0513025968124141 0 0 0
1168 1 16.02300292165129 19.68080244243636 1.2689691938124559 1 1 1
40 1 11.052000840599776 5.979279683280073 2.5753421106654844 0 0 0
59 1 9.095979372689518 7.275433761131925 2.7722469394632525 0 0 0
178 1 8.94711834687284 5.491086073575012 4.314105512449689 0 0 0
205 1 10.99924733850353 7.5683356224640566 4.178183634938992 0 0 0
68 1 12.973989718240615 7.597417557816436 3.0066927430647605 0 0 0
204 1 9.307364801622946 9.064616351773793 4.434547045348793 0 0 0
511 1 12.53326412158636 20.802413063286423 12.60731598084967 0 -1 0
1657 1 0.6084764977354277 7.290818554193352 1.1581407430662107 0 0 1
182 1 12.55955900296209 5.6260225232570225 4.309857283065464 0 0 0
67 1 15.90339302678119 7.340277136522278 3.031734121478827 0 0 0
1619 1 14.374288310395377 5.572634967103299 2.665164796531813 -1 0 1
186 1 15.90754135557776 5.44747625389018 4.800247421409768 0 0 0
33 1 9.094376513068426 2.041565448608903 1.2182026560999164 0 0 0
1473 1 14.313724420101652 0.719330317709098 1.1570044245314661 0 1 1
209 1 14.435932719319757 6.871490584232423 4.782994273937977 0 0 0
1561 1 11.261668985988582 14.375253109634157 1.4200402285282074 -1 2 1
46 1 17.526753441294346 5.665098556634981 2.7176639037070798 0 0 0
71 1 19.402092448591766 6.9632743069659195 2.5031945347237885 0 0 0
190 1 19.354493401778527 5.659621811257668 4.324648432453973 0 0 0
213 1 17.66103425247909 6.960561879251746 4.449762979783168 0 0 0
504 1 19.692651205794363 19.435749039198583 11.504754955287591 0 0 0
1213 1 4.088339612640059 3.9029449122401467 1.1671881323641047 0 4 1
79 1 4.182792808722765 8.828934281176299 2.963873627749014 0 0 0
1399 1 2.439340728221321 10.593126936448478 2.878403252224013 -3 -2 1
194 1 2.2763554433582964 9.067578239917644 4.832920859178698 0 0 0
221 1 3.866690706982923 10.416045704350255 4.49900008981351 0 0 0
217 1 2.4628634417526842 12.110993494986023 4.4897808390308125 0 0 0
239 1 0.7236084989205294 10.653120537267512 4.411095276914082 1 0 0
52 1 0.5950389531093028 8.61027492547216 3.137439018958402 0 0 0
69 1 2.581521844370322 5.923967820103679 1.3124887355791062 1 0 0
1110 1 10.940446315556311 17.406506981172505 1.4041012569732128 -3 0 1
57 1 7.517636045898552 7.224070729968886 1.0782627523791009 0 0 0
1618 1 19.415746645919256 9.128210296543973 1.263857190494237 -1 0 1
202 1 7.531282121536307 9.618623963371737 2.8171009527747835 0 0 0
84 1 5.779964237254935 10.797379803936476 3.2200901783442943 0 0 0
225 1 7.661084955197086 10.9981147392326 4.629918225853423 0 0 0
198 1 5.989626553248532 9.255869924155654 4.898698810514272 0 0 0
222 1 5.657145066548763 12.17604965457945 4.851082385851291 0 0 0
86 1 7.533070559896567 12.33785601921223 2.6410651542403754 0 0 0
94 1 10.7493579415585 10.699211851543103 1.289804532054137 0 0 0
1188 1 16.121669950647757 15.933571391249645 1.1255204029259787 0 -1 1
58 1 9.271188643588934 10.871781567899664 2.8153305429723083 0 0 0
64 1 10.83633328931123 9.20428216081675 2.8509033207840515 0 0 0
229 1 11.009873730629508 11.117078229864997 4.561897785602566 0 0 0
88 1 11.129546656484006 12.743227553079201 2.7344438695524422 0 0 0
226 1 9.131200532725261 12.679512971907576 4.168648413567686 0 0 0
206 1 12.655169043244062 9.53427517468394 4.418596797782502 0 0 0
9 1 7.430690807637966 20.8075384624173 1.367899571109016 0 -1 0
96 1 16.07930018064659 12.60494985831042 1.5143592135604813 0 0 0
502 1 16.293107293309053 19.22329842773251 11.523686806310865 0 0 0
1731 1 16.076883761972248 9.21162249233275 1.0786433395652657 -5 -2 1
1669 1 4.292650336713546 7.528538191046384 1.1508091728575633 -1 2 1
87 1 12.59144389351591 10.658519124970733 2.571903529985554 0 0 0
230 1 12.98030739728422 12.458047674267707 4.534421819702985 0 0 0
1439 1 14.5932699082088 8.94312709608707 2.8544671458056055 2 1 1
210 1 16.23513674393616 9.149736713908664 4.670431244537057 0 0 0
1101 1 16.13716253536249 10.689457364680173 3.1135139061726336 1 2 1
233 1 14.581206871908881 10.95229086050641 4.849636757586801 0 0 0
113 1 14.395841492617533 12.472012853707612 2.8301527987591593 0 0 0
234 1 16.117241060096518 12.840981311818148 4.7377518879337135 0 0 0
424 1 10.585052648626863 18.92978825719026 9.883346054306532 0 0 0
111 1 17.64204615556349 10.607710212259503 1.1386743438220326 0 0 0
95 1 19.330124725106437 10.590464078474799 3.2032555280316966 0 0 0
72 1 17.57861781129145 8.872295070939767 2.7047593053330363 0 0 0
237 1 17.484759374612644 10.899960927459015 4.972063090680692 0 0 0
214 1 19.09642556632405 8.758301479416486 4.466947220070022 0 0 0
238 1 19.62427720240204 12.375722832578466 4.8258570519780015 0 0 0
1 1 19.574215688694345 19.43134366392203 1.1884119511248912 -1 -1 0
1625 1 12.988375850458082 12.422819275760741 1.2722330492082266 1 3 1
218 1 4.147301612128697 12.211381684220717 2.5908256622439225 0 0 0
122 1 2.3443714753347487 15.925002023055331 1.3512897508172321 0 0 0
99 1 2.368597951408818 13.917822228753524 2.6142698977063343 0 0 0
104 1 4.267606415016525 15.745420339690881 2.857805975825441 0 0 0
245 1 3.894798975930354 13.736229602729122 4.431088934785356 0 0 0
121 1 0.6493491546685699 15.868908912909582 3.041722745869591 0 0 0
55 1 5.855964599412367 9.36720161170669 1.0525864004355956 0 0 0
498 1 8.974770137782603 19.18150038797235 11.580638548459609 0 0 0
1934 1 10.743675963541294 3.641220106153697 1.0721830248843818 0 2 1
1307 1 0.9248655472042262 17.791249760296616 0.9953640081381927 -1 0 1
103 1 5.7967840451612185 13.712237590858255 2.912590792392699 0 0 0
108 1 6.749603317161247 15.523667484204763 2.9118178386617815 0 0 0
249 1 7.3442458247531 14.030300214968598 4.902109885614884 0 0 0
246 1 5.352229589711939 15.633656249889016 4.819859541220654 0 0 0
1493 1 0.5346999090000181 4.245847711263324 1.2435317839868 -1 2 1
107 1 9.178022443536479 14.155512597761856 2.462670968821292 0 0 0
135 1 10.733528434744814 15.750224630275937 3.0402637152468137 0 0 0
253 1 11.193252822822208 14.497711455567357 4.679407506493469 0 0 0
250 1 9.084460973627564 15.805809138889641 4.75914562255325 0 0 0
75 1 2.2088900033714722 8.939554020035626 1.112189793276298 0 0 0
13 1 12.899420333808646 16.03771428959623 1.3407101626405877 0 -1 0
501 1 14.023392180949513 17.427290860337884 11.904843109649857 0 0 0
1573 1 0.6920393489653687 10.809429088546157 1.3905657768720983 -4 -2 1
254 1 12.77032334017575 16.465592042116192 4.71849810718827 0 0 0
116 1 12.658212970925199 14.461779965427343 3.203518812969195 0 0 0
257 1 14.483639624720011 16.218735703185935 2.928623754525754 0 0 0
115 1 16.362846605323632 14.200139402783332 2.824671882214765 0 0 0
258 1 16.458836327943793 15.837154435477304 4.611344482520289 0 0 0
92 1 14.535504828753687 14.77639278682876 4.657268971950133 0 0 0
76 1 0.86829943457992 12.131382672037681 3.156503817868777 0 0 0
119 1 17.855334575911115 12.491485618077133 3.0768385035417896 0 0 0
100 1 19.837013376728628 13.866432138242175 3.395016606006568 -1 0 0
120 1 18.24723766330787 15.914668440069613 2.7849300814707147 0 0 0
261 1 18.109113004601895 14.14865088769444 4.686939102333325 0 0 0
241 1 0.867956941242319 13.764995760764307 4.962627804787433 0 0 0
1977 1 3.9104989623631203 10.274882173933921 1.2785516255802385 -1 3 1
105 1 7.4412759792062655 14.249197034651027 1.2587450471264294 0 0 0
123 1 2.100415420183739 17.632696449750433 2.788014421946059 0 0 0
266 1 2.1680824494731183 19.17890480005584 4.725638139353121 0 0 0
128 1 3.787856135896613 19.231608220209992 3.0535046765375222 0 0 0
269 1 4.057186527985461 17.51743578830628 4.635370923030752 0 0 0
265 1 0.8104868798205571 17.332533154179075 4.596397247566022 0 0 0
124 1 0.8120609987339018 19.784580420302518 2.720431764953819 0 0 0
499 1 10.608825349691665 17.20922607315073 11.407788579324095 0 0 0
127 1 5.971949254849689 17.525375268291114 3.1055078997009864 0 0 0
132 1 7.736818271098317 19.143140028179353 3.1011724648048418 0 0 0
270 1 5.5843152207759985 19.210289354061423 4.451411845964833 0 0 0
273 1 7.265829274675319 16.94637810276238 4.459600003899723 0 0 0
1746 1 7.312379467420545 4.172941630017251 1.0578181849298496 2 2 1
21 1 17.692547499428045 0.7217709141054802 1.2506959185473658 0 0 0
131 1 9.159518688355782 17.17918726260399 3.117124201695263 0 0 0
136 1 10.935389817804772 19.211312451790683 2.9814126629779567 0 0 0
274 1 9.230041862661945 19.161284448884317 4.759269901709551 0 0 0
277 1 10.81857697737245 17.47351530621404 4.768333193453271 0 0 0
278 1 12.86732148442295 19.048998012941006 4.494748345220189 0 0 0
137 1 12.707319616513331 17.57217132070675 2.7074570666239612 0 0 0
1827 1 14.596102905773192 14.35042441609875 1.491646611541062 1 2 1
73 1 18.297528047130633 14.175199064149922 1.1554090199538465 -1 0 0
19 1 15.664069139009825 0.834092632270604 2.973075581099674 0 0 0
140 1 14.474801723445061 19.12518095230883 2.8815944622525236 0 0 0
139 1 16.356952493362265 17.791032905552292 3.0122926915509467 0 0 0
282 1 16.40319824638425 19.491095448605115 4.42760496163401 0 0 0
281 1 14.716527362582365 17.474032905453164 4.515314688814189 0 0 0
143 1 19.789799385032367 18.007259238255813 2.8224442857868475 0 0 0
144 1 18.055813947322484 19.459977603563345 2.918107580858872 0 0 0
286 1 19.802560922958122 19.2917457378043 4.689463279051122 0 0 0
285 1 18.08836034100812 17.57981656685351 4.638211446007841 0 0 0
165 1 17.917208109280033 0.5629985260462608 4.866857905709468 0 0 0
427 1 16.125486449683716 17.78992645623974 10.01515396581909 0 0 0
171 1 2.3290000633340755 4.109609236009057 6.682043283062235 0 0 0
290 1 2.496888767626404 2.6068413689706533 8.357038504276165 0 0 0
152 1 4.319547001996696 2.230523210138516 6.2427534997386775 0 0 0
317 1 4.234760320147641 4.085876485522955 7.837985520972523 0 0 0
147 1 2.3324938368816457 0.5397716845667371 6.057194983801411 0 0 0
293 1 4.4398682916633305 0.6286675058593609 8.083418063107091 0 0 0
289 1 0.8518839607072755 0.5980009332633349 8.49417915093592 0 0 0
313 1 0.4996337964645948 4.172372151964594 8.213052917000034 0 0 0
156 1 7.386764435670279 2.144680314168134 6.144418797462172 0 0 0
294 1 5.6516181080055965 2.5532615147673323 8.422992154501136 0 0 0
321 1 7.600758247774359 3.886074767031807 7.928312021335922 0 0 0
175 1 5.9000883162029005 3.940296384588841 6.571168938415522 0 0 0
151 1 5.887059733159223 0.6940080847899912 6.260964113547081 0 0 0
297 1 7.41518890586367 0.8309222349871895 7.994940605155482 0 0 0
298 1 9.338266628335004 2.4169512960395445 8.111344365422344 0 0 0
160 1 10.863578501154135 2.2950584784888246 5.96721941639758 0 0 0
179 1 9.033227885825168 4.084810628152905 6.163094381515657 0 0 0
325 1 11.185084054837848 3.879298678186863 7.86499060092013 0 0 0
301 1 10.597437996700044 0.48132262255708436 8.14366232636213 0 0 0
155 1 9.173128998914803 0.7107756387982531 6.0448531799843535 0 0 0
302 1 12.452995764904722 1.8223394852318369 8.042080482416544 0 0 0
183 1 12.653499215998327 3.8476973092365885 6.276424946087577 0 0 0
159 1 12.579235028195905 20.432523079733137 6.282924669528944 0 -1 0
164 1 14.123158269189167 2.1574665697363855 6.389681288779456 0 0 0
187 1 15.827675370381144 3.9019262868798865 6.428529593490123 0 0 0
306 1 16.113028004849973 2.2819073647006354 8.113251620114486 0 0 0
329 1 14.108387559650005 3.758038451386337 7.959485309515071 0 0 0
305 1 14.23361081827259 20.83998593305957 7.992913047910515 0 -1 0
163 1 16.04643014827508 0.5563172752631922 6.315278025084608 0 0 0
148 1 1.0195056095664916 2.1095281153757215 6.763682485622357 0 0 0
168 1 17.87386538524492 2.7759993320160947 6.224741095911444 0 0 0
333 1 17.942893144684206 3.9449832631481745 7.869876560275063 0 0 0
310 1 19.35785237077173 2.3692953081970574 8.48019010002779 0 0 0
191 1 19.89706346513396 3.582761287475286 6.42086055229744 0 0 0
309 1 17.705641859577185 0.5281849745551115 8.212325940823064 0 0 0
195 1 2.5032894521767237 7.690966756111565 6.345271599017423 0 0 0
314 1 2.560481649604127 5.924267500476843 8.089322383122642 0 0 0
176 1 3.7747107209564184 6.0803773486727115 6.436763035008684 0 0 0
172 1 0.7218597579898531 5.972079368531402 6.3766365156350835 0 0 0
341 1 4.065976571651739 7.711949330409707 8.33664078933009 0 0 0
180 1 7.3999028909185816 5.661990209604444 6.65146683010139 0 0 0
199 1 5.937203736082083 7.5473594514947075 6.577811886103022 0 0 0
318 1 5.681795064893967 5.890559607629681 8.08760900855007 0 0 0
347 1 7.984429872114682 7.363986609641813 7.868242142209357 0 0 0
203 1 9.101892008221277 7.090888892902898 5.862174019910178 0 0 0
184 1 10.798480212089615 5.421783505845043 6.241789464213431 0 0 0
322 1 9.384399288484532 5.618698899967827 8.186769096264655 0 0 0
349 1 10.858818792110277 7.421966876553228 7.64432045706815 0 0 0
207 1 12.53400269772057 7.2584053677805365 6.057642248019758 0 0 0
326 1 12.614287195199953 5.648220960981699 7.934542172442671 0 0 0
188 1 14.287592126046915 5.444250025567235 6.439718810775509 0 0 0
353 1 14.295706799436495 7.412107556821035 7.614767222987887 0 0 0
211 1 16.208812325234533 7.152628993417873 6.270337326314394 0 0 0
330 1 16.041874136986884 5.775987067458434 8.289627105662657 0 0 0
337 1 0.678613717627122 7.58511175586774 7.973968320167638 0 0 0
355 1 17.681745252645634 7.29498340762576 8.026516275840926 0 0 0
192 1 17.682544327184097 5.41887125307646 6.570296120526582 0 0 0
215 1 19.349473993001652 7.231000920089372 6.1244057581025535 0 0 0
334 1 19.386554897677783 5.744217994374412 8.293031371259799 0 0 0
338 1 2.3655762087319845 9.066566404269134 7.963693920397748 0 0 0
219 1 2.4737190716484037 10.856645322230788 6.4916392233244995 0 0 0
365 1 4.1600793514431285 10.728525659163786 8.723727302259007 0 0 0
357 1 1.1489122418358093 10.682117385845057 8.2076677731627 1 0 0
193 1 0.46976342277362737 8.965281304503732 6.141978050405321 0 0 0
200 1 4.183542279485426 9.334446029416394 6.651024679920637 0 0 0
362 1 2.7365187513535805 12.72566190773442 8.338165080534779 0 0 0
224 1 4.118309169575007 12.169253022743268 6.898243399765269 0 0 0
220 1 0.8486746084937833 12.122277526737648 6.310034196766773 0 0 0
342 1 6.288537316565114 9.10052402508963 8.089849322337576 0 0 0
345 1 7.776523669883759 9.18064938366517 6.412658898889472 0 0 0
223 1 5.821951535941916 10.924033129618374 6.579865453679674 0 0 0
369 1 7.753416444886516 10.85035647200432 7.9467156756738975 0 0 0
366 1 5.649100534094311 12.482989930046072 8.4697627829731 0 0 0
228 1 7.422497217325434 12.539524921973584 6.515815716624518 0 0 0
346 1 9.558976056429485 9.057395934170652 7.903724816881371 0 0 0
208 1 10.905666928891483 9.219319410594675 5.926505458645872 0 0 0
227 1 9.42717943373805 11.350655307580965 6.197148457764183 0 0 0
373 1 11.088272343098218 10.76044340698766 7.720915700397761 0 0 0
231 1 13.05465822633623 10.686651771245206 6.233575288771404 0 0 0
370 1 9.313366659206501 12.421542033650097 7.959578122218072 0 0 0
350 1 12.75012491640314 9.150485307219261 7.9080516774439715 0 0 0
374 1 12.519035751151117 12.492744431751754 8.191907937953179 0 0 0
354 1 16.026288032183054 8.959420989428407 8.029893787264676 0 0 0
212 1 14.65874905174641 9.115220051727633 6.303874240534754 0 0 0
377 1 14.451500310382679 10.71533962484069 8.11440804706666 0 0 0
235 1 15.97865435572716 10.983372877825303 6.618077288852372 0 0 0
378 1 16.21192906987921 12.750732979484145 7.980740822418171 0 0 0
236 1 14.234872406457225 12.60916815228786 6.654036508875719 0 0 0
216 1 17.61106384123559 8.800144874324145 6.348151342917415 0 0 0
358 1 19.41660423366001 9.098892179562846 7.993423527513493 0 0 0
196 1 19.6197637934335 10.51177970934343 6.272906957783013 -1 0 0
381 1 17.70088505457067 10.604120398445177 7.871665037111674 0 0 0
382 1 19.196976896246035 12.233176393350073 8.368268173533462 0 0 0
240 1 17.846416148635292 12.601048545867023 6.3431285397583075 0 0 0
242 1 2.5126582362695586 15.905961868339357 4.768178975915941 0 0 0
243 1 2.500181276366464 14.082564191834672 6.333355049265809 0 0 0
386 1 2.5600327414728263 16.22838961818521 7.979447833782979 0 0 0
389 1 4.114139630148341 14.333733232187123 8.152481732468765 0 0 0
248 1 4.036563460706163 15.947623533458547 6.446890232039442 0 0 0
385 1 0.9064551149244666 14.197737067608909 7.811116165148206 0 0 0
247 1 5.656722084038913 13.789642671423543 6.564957179081467 0 0 0
393 1 7.3789642748194035 14.2393307974965 7.931795759524617 0 0 0
252 1 7.6025670987822425 15.889767131192746 6.568434257149411 0 0 0
390 1 5.824538086102124 16.033636471483703 7.845821887340592 0 0 0
232 1 11.597012180126319 12.70115818752782 6.024447971725926 0 0 0
394 1 9.319501206886354 15.672417922779838 7.896376938173037 0 0 0
251 1 9.633710528809205 14.334723011652038 6.373299544999917 0 0 0
397 1 10.738785738214451 14.1011364481262 8.339579988892126 0 0 0
256 1 10.850032281827414 16.164262599141605 6.6081247041830355 0 0 0
398 1 12.820760441046934 15.953106006854231 8.158753541028721 0 0 0
255 1 12.83908631518954 14.626292836863453 6.218115365653545 0 0 0
401 1 14.19563952868247 14.381084222930074 8.19632519044935 0 0 0
259 1 16.21743950377827 14.365527629191767 6.56566645155051 0 0 0
260 1 14.473833873959322 16.1240377640926 6.211920579683118 0 0 0
402 1 16.466319422205295 15.831452735311137 8.438247913051741 0 0 0
262 1 19.48996946060852 15.868456730652513 4.463824720106855 0 0 0
244 1 0.8473656455819558 16.051360055597122 6.400881042115365 0 0 0
405 1 18.24859526831729 14.481672917733313 8.302933234077896 0 0 0
263 1 19.52597737615298 14.1600031719659 6.6244404461711675 0 0 0
264 1 18.031587182879996 15.966741955611077 6.319991053679626 0 0 0
406 1 19.755676823040247 15.921054884626564 8.282087118589722 0 0 0
267 1 2.5069840085743325 17.82629822903801 6.328971450003241 0 0 0
410 1 2.695529816526942 19.663354619626602 7.976850439072295 0 0 0
272 1 4.100957667706449 19.49231640156011 6.279865087145363 0 0 0
413 1 4.178472571118384 17.951962619536623 8.312139287585229 0 0 0
409 1 0.8331539325411943 17.75687657758614 8.054645269852697 0 0 0
268 1 0.4450763667942605 19.926337006575068 6.3782901884651695 0 0 0
271 1 6.033217871340166 17.68963680454503 6.184162575778031 0 0 0
417 1 7.664065391389293 17.454774625805854 8.121441083740619 0 0 0
276 1 7.5980511384748475 19.425296900615542 6.371774633433663 0 0 0
414 1 6.013172326856493 19.564701723731602 8.15341387223021 0 0 0
275 1 9.008396098638167 17.529592372708514 6.14182334740016 0 0 0
418 1 9.034330888271459 19.552935288861015 7.897656449692176 0 0 0
421 1 10.64038496640724 17.874693015691065 8.118690957046192 0 0 0
280 1 10.795479533131502 19.38505234675082 6.575230796237839 0 0 0
422 1 12.557635770332487 19.141031877727407 8.115771219789437 0 0 0
279 1 12.488838438881979 17.551532106124412 6.63454306221173 0 0 0
283 1 16.485936062913005 17.79987366846442 6.186603313798647 0 0 0
425 1 14.7182442880527 17.739480260050378 8.201762771488125 0 0 0
284 1 14.55131147008449 19.240850271067956 6.455280117544666 0 0 0
426 1 16.398483897193756 19.210399556050184 8.049121278276212 0 0 0
167 1 19.437570159278692 0.9135774825029372 6.874569686358934 0 0 0
429 1 18.00151322765639 17.625942420331455 8.078188701043818 0 0 0
287 1 19.700094034724053 17.977233779999096 6.318272647182295 0 0 0
288 1 18.014610631772463 19.579147089703405 6.56864137205016 0 0 0
430 1 19.675600651951 19.3696337056263 8.216642298898652 0 0 0
291 1 2.594211994582163 0.4997037743533825 9.709915171916808 0 0 0
434 1 2.529006680458444 2.5968761493588772 11.618416955438063 0 0 0
296 1 4.312497742663626 2.537678052612369 9.892444789982225 0 0 0
447 1 4.326163520709359 4.076072592537387 11.21184049207275 0 0 0
315 1 2.441942518884813 4.1068705619092025 9.845227497207917 0 0 0
292 1 0.6559494912544566 2.274476252210836 10.099049889556424 0 0 0
445 1 0.6486210891176355 4.163608775080048 11.502270905706814 0 0 0
435 1 3.9373633587659946 0.5832312347126384 11.534452884712117 0 0 0
433 1 0.9276382320681241 0.7365843225135733 11.745344490744406 0 0 0
437 1 7.365477817802593 0.648496768282554 11.644746701603541 0 0 0
300 1 7.615036183368909 2.4334908574498963 9.76542522913088 0 0 0
436 1 5.988468914192508 2.3217655091458176 11.46833838278988 0 0 0
449 1 7.786047468682889 3.9605155711751503 11.492634045297663 0 0 0
319 1 5.834559661916784 4.211073052911327 9.644981835906076 0 0 0
295 1 5.850166033111219 0.8052330083788704 9.758429724948709 0 0 0
299 1 9.160718814837194 0.6729943484798191 9.93744534761357 0 0 0
439 1 11.026087195206165 0.42198967826510625 11.146815316766967 0 0 0
438 1 9.327420776101993 2.3563798534442677 11.508499272776868 0 0 0
304 1 10.91783466223125 2.2504482073634713 9.689496639610832 0 0 0
451 1 11.055565986532985 4.226027989407267 11.299420153495518 0 0 0
323 1 9.288617101994463 3.918207020355089 9.708395825756838 0 0 0
440 1 12.72453520768192 2.3955771307933755 11.495862440910813 0 0 0
327 1 12.798807251867087 3.9714200435448026 9.820592567806665 0 0 0
307 1 15.793714071352534 20.712851036930218 9.457317352297563 0 -1 0
441 1 14.364619871869998 0.77722446460098 11.121047153493807 0 0 0
308 1 14.145062410311471 2.263298473035377 9.58358828472487 0 0 0
442 1 16.039204720911524 2.1195383946156 11.255658243550423 0 0 0
331 1 16.175196635854093 3.6792324068128006 9.603893009856758 0 0 0
453 1 14.31797273419109 3.948365406100003 11.670606749596168 0 0 0
428 1 14.291908253521065 19.16999715405302 10.13752060393321 0 0 0
311 1 19.54253879360835 20.844313061064376 9.856904818856124 0 -1 0
443 1 17.85319776415716 0.49699207710456916 11.331264383391852 0 0 0
312 1 17.79502159519707 2.1894533491712633 10.054930275867429 0 0 0
444 1 19.271581673050022 2.5680548189885983 11.655642895579977 0 0 0
335 1 19.28106027558035 4.0029500149257515 9.711605128432906 0 0 0
455 1 17.586640255856622 3.992866681599904 11.36450578657527 0 0 0
339 1 2.4883635394477652 7.80971822055615 9.891807596725934 0 0 0
446 1 2.594379642912315 5.82865609899087 11.384964073494535 0 0 0
320 1 4.302438478818177 5.899231957909864 9.839182956725569 0 0 0
459 1 4.397352045311549 7.135869140797397 11.607740028750616 0 0 0
457 1 20.790499321839086 7.366446370804414 11.654446849008094 -1 0 0
316 1 1.0184552637285802 6.007707803250885 9.883668255776474 0 0 0
324 1 7.609062120769482 5.627223676205239 9.747040968124047 0 0 0
343 1 6.194896953220938 7.329694941687256 9.878234569394287 0 0 0
448 1 5.98359481684455 5.517966750024452 11.64872222374666 0 0 0
450 1 7.744959100902772 7.564845269597589 11.964582667427447 0 0 0
348 1 9.539314353593378 7.352964329856948 9.82553645570851 0 0 0
521 1 9.494421918449381 5.887586662252705 11.432038673616338 0 0 0
328 1 10.991683251628366 7.760933503176039 11.376161317659905 0 0 0
463 1 10.943971584611772 5.70902909544335 9.437674732743142 0 0 0
452 1 12.58718848251842 5.964318178307325 11.544732799800494 0 0 0
351 1 12.429927923767622 7.360109988471502 9.622227058194094 0 0 0
537 1 16.09117226022169 7.293321974233846 9.649048296493396 0 0 0
332 1 14.231669887985959 6.030476595463117 9.54239856423106 0 0 0
465 1 14.151974180559012 7.43106695739755 11.464171535387129 0 0 0
454 1 15.907426095394767 5.627315456958116 11.1702847629911 0 0 0
336 1 17.791590573793897 5.970265035376071 9.70756454361009 0 0 0
467 1 17.895379340021613 7.4957717422455925 11.470840456051997 0 0 0
359 1 19.683114439596693 7.513278392962085 9.969075152801784 0 0 0
456 1 19.415385358108637 5.65214810955684 11.30918368383011 0 0 0
363 1 2.5831523103200458 10.776208470503002 10.075294534573667 0 0 0
529 1 2.218182908870582 8.979510152211198 11.570193519453545 0 0 0
471 1 4.148736356257848 10.375105382188657 11.466104738395794 0 0 0
340 1 0.834420411049067 8.94003540553471 9.78926754846397 0 0 0
469 1 0.643801839595621 10.683115931947437 11.47333530944674 0 0 0
344 1 4.55043176152093 9.007959169903533 9.924489856169629 0 0 0
368 1 4.2569767262223035 12.57884636220598 10.05001430037611 0 0 0
458 1 2.431573392014897 12.474351302971654 11.51109312256515 0 0 0
461 1 7.778945626576064 9.373581478029056 9.797994602134207 0 0 0
460 1 6.179933322015719 8.914870103478725 11.389469721460435 0 0 0
367 1 5.919343698371423 10.635043146643959 9.898295438742242 0 0 0
473 1 7.452048331998774 10.913557498984215 11.580599531773572 0 0 0
372 1 7.375059735502698 12.229434112185231 9.619921544377585 0 0 0
472 1 5.807556154287917 12.42963772589681 11.598991645263208 0 0 0
419 1 8.927356844203526 17.322483127955238 9.703673233400586 0 0 0
352 1 10.869441580028656 9.11881640384881 9.61993385947802 0 0 0
462 1 9.038964027134005 9.168687370031497 11.65667897875123 0 0 0
371 1 9.249763346535799 10.733726464653085 9.521874563062735 0 0 0
475 1 10.677610645997474 10.67023248934341 11.354778533977203 0 0 0
376 1 10.672290670114586 12.333295438678725 9.69312730928217 0 0 0
474 1 9.133655597622129 12.215430318648457 11.544513477084449 0 0 0
375 1 12.671327605157774 10.749812621724418 9.778435294133038 0 0 0
464 1 12.547462476873859 9.43084703534348 11.499183733950279 0 0 0
423 1 12.72151329544342 17.589485515781256 9.548956407536323 0 0 0
356 1 14.272475055910553 9.068758072761987 9.642196279703297 0 0 0
466 1 15.763340569477185 9.117980112970145 11.0846137065252 0 0 0
379 1 16.143883009026073 10.689641262088635 9.529359224953565 0 0 0
477 1 14.170915971213951 10.74139305811855 11.191186371853432 0 0 0
478 1 15.88884129978831 12.300076524453692 11.379632362140853 0 0 0
380 1 14.245289227123076 12.672496227470566 9.701046076672519 0 0 0
360 1 18.01732332828488 8.92781281899533 9.586628000647403 0 0 0
468 1 19.260070817726962 9.22224857907824 11.51747083864298 0 0 0
361 1 19.630661962119788 10.609417988549268 9.772167607858691 -1 0 0
383 1 17.543970489636393 10.688818287872136 11.0386735459382 0 0 0
384 1 17.82498119214148 12.604735674966038 10.179593518991492 0 0 0
364 1 0.7556609897035526 12.432305480502556 9.622308143514774 0 0 0
553 1 2.3899168916613256 16.05880016362827 11.67699769967564 0 0 0