LAMMPS data file via write_data, version 29 Oct 2020, timestep = 0

2744 atoms
1 atom types

-1.8578969527324745 26.66589695273306 xlo xhi
-1.8578969527324745 26.66589695273306 ylo yhi
0.0 59.665896952733064 zlo zhi

Masses

1 58.933

Atoms # atomic

1 1 24.78118034488065 0.013562444493965445 2.949432731864704 -1 0 0
987 1 23.090636665050145 12.287154936431374 13.68053585235201 0 0 0
3 1 1.6993040572287403 -0.05586585745631856 4.542742254452826 0 0 0
4 1 24.825198972504115 1.8224080347881753 4.554268094549276 -1 0 0
343 1 21.327389305737505 10.671478383894554 13.75137752812105 0 0 0
8 1 3.42999172626637 1.8287323036538838 4.662111582570002 0 0 0
29 1 -0.016811976505427616 3.5395821659014426 2.944839427806013 0 0 0
31 1 1.7892865110407579 3.4854319104399796 4.632000351611794 0 0 0
896 1 21.354235873594117 12.394689806701047 11.882126024468885 0 0 0
336 1 23.111762176153814 8.938984779276224 13.736391400566703 0 0 0
100 1 1.6409192362811447 1.6337621778235238 6.366645348857716 0 0 0
294 1 23.02488514259696 10.698198214426194 11.890141820905615 0 0 0
127 1 24.823028359506772 3.5343590739646995 6.43967632484736 -1 0 0
131 1 3.492868643657561 3.4397792849815985 6.561103713385726 0 0 0
894 1 17.868044581448952 12.398522999897967 11.713203483271915 0 0 0
7 1 5.317347592722526 0.056432404217098886 4.615469667147196 0 0 0
9 1 7.035846105659166 -0.04759815493846689 2.99151001067524 0 0 0
12 1 7.0226240196128975 1.8951166371356547 4.689286726874836 0 0 0
35 1 5.180483900847114 3.4451172571078774 4.740926916550496 0 0 0
37 1 6.868642189105047 3.4830304163046772 2.9655476031189605 0 0 0
104 1 5.2383603196877875 1.6886035853018782 6.542475570966312 0 0 0
107 1 7.140047671248382 -0.06765930934195667 6.285412917841045 0 0 0
135 1 7.028030697212092 3.6490114062079524 6.458010671316084 0 0 0
10 1 8.839097443072028 1.7345331745718544 3.010679417704577 0 0 0
280 1 21.337474244149288 8.744741515646435 11.88019807166789 0 0 0
342 1 17.842901633822667 10.50655767786559 13.63513034217818 0 0 0
16 1 10.724419149511377 1.6659380730974425 4.722595908951329 0 0 0
39 1 8.82265315822882 3.497323877733007 4.701201267119792 0 0 0
41 1 10.63416004136892 3.5865049133499936 3.0008274297642004 0 0 0
108 1 8.839751109696977 1.6986924026422376 6.441136340763229 0 0 0
111 1 10.675263896883202 0.01850368821672907 6.45176630372603 0 0 0
139 1 10.651962777331418 3.487065736917614 6.351566142297006 0 0 0
14 1 12.547119239845276 1.5957825443186082 2.967370767108395 0 0 0
334 1 19.614485116927394 8.79406619327511 13.715853305775788 0 0 0
292 1 19.61483348813606 10.58817199783395 11.925329326813845 0 0 0
18 1 16.007696725840386 1.7097881807193696 2.985157063474458 0 0 0
276 1 17.856831429268095 8.78295118802524 11.787829321701384 0 0 0
20 1 14.08960392736327 1.6825480209466837 4.82908027666706 0 0 0
43 1 12.44382655604016 3.5906566469218726 4.580016288522321 0 0 0
45 1 14.2377018013069 3.5419728222980016 2.95022435739854 0 0 0
47 1 15.964965077684258 3.5455945023433415 4.778948794285886 0 0 0
112 1 12.42782019770471 1.722526316394996 6.506749445271058 0 0 0
341 1 14.248354116834687 10.5309325819055 13.512932636375403 0 0 0
116 1 15.964219848011123 1.714774420228174 6.466520675571212 0 0 0
143 1 14.216413499576804 3.560408189946238 6.4760832881185255 0 0 0
985 1 16.044933824269567 12.20580180604179 13.343866950616581 0 0 0
984 1 12.526401430239599 12.348741813928509 13.717965194128181 0 0 0
23 1 19.449803097315744 -0.0725036161154061 4.674015993528799 0 0 0
24 1 17.77674669070286 1.8189685544657284 4.507172622243537 0 0 0
892 1 14.23451911441947 12.288412380345477 11.891886508154368 0 0 0
51 1 19.485678695034707 3.4296909415907693 4.6224265339294925 0 0 0
119 1 17.591296019721888 -0.046645199484465785 6.472164891254108 0 0 0
120 1 19.591304865159344 1.763955027148577 6.4227075597960335 0 0 0
147 1 17.762702468450758 3.5564080502546362 6.393530543602706 0 0 0
332 1 16.042320228656912 8.792437571138347 13.479277423736768 0 0 0
890 1 10.773909256403646 12.352964867624815 11.858304219355137 0 0 0
330 1 12.43609423023473 8.780862432463083 13.577684321823092 0 0 0
28 1 21.344323938249925 1.7200404168254344 4.588377699472184 0 0 0
982 1 5.3832215184033965 12.371187891197076 13.750957986196422 0 0 0
55 1 22.97652228841448 3.533925713238529 4.664008972312708 0 0 0
290 1 16.049520247217245 10.49431673793714 11.767269163542132 0 0 0
124 1 23.07792200897438 1.8061735106747794 6.433124705076953 0 0 0
151 1 21.24332442323423 3.500708452901278 6.540441756705734 0 0 0
888 1 7.006024859971366 12.365894900982425 11.889740143139923 0 0 0
32 1 0.012984345329070862 5.175179607206233 4.703038142385224 0 0 0
36 1 3.4107793487262197 5.23531303366105 4.700955547890226 0 0 0
57 1 24.80871084821351 7.104537075566119 2.940433741035454 -1 0 0
59 1 1.5967702112708941 7.123631077542176 4.754286437066615 0 0 0
61 1 3.4447203008887755 7.0958067275650825 2.9916083235341446 0 0 0
128 1 1.6198157137611249 5.2018084415317345 6.553380449666234 0 0 0
155 1 24.839154431459054 7.018114956140291 6.594818205931198 -1 0 0
159 1 3.4766467946936515 6.973403099165371 6.5703439182736085 0 0 0
981 1 1.7484290024057993 12.37354838748024 13.779062626264137 0 0 0
40 1 7.015786760519772 5.378451423295888 4.7349879280839104 0 0 0
63 1 5.197939804478723 6.9831138918031055 4.718560502356922 0 0 0
886 1 3.5346868607667883 12.340775580831652 11.922946215422094 0 0 0
132 1 5.151502865004817 5.132865201289112 6.526043672917121 0 0 0
163 1 7.024945274689811 7.036446714015761 6.450459513738432 0 0 0
38 1 8.823244372444456 5.2725559435930265 2.926167900965133 0 0 0
44 1 10.502676102028918 5.330696796797996 4.701145356010344 0 0 0
67 1 8.760885547173269 7.18630835119497 4.7824888902723615 0 0 0
69 1 10.5008077935442 7.1551058157181515 2.953247060556897 0 0 0
136 1 8.810578960362298 5.36969881736209 6.442735971727388 0 0 0
167 1 10.646356479944718 7.175218614842549 6.475283241937332 0 0 0
42 1 12.3647657641496 5.286724466547557 2.9486719752774686 0 0 0
895 1 23.2302077526814 12.327623796199743 10.174508146313054 0 0 0
48 1 14.328787948099848 5.3157830451334105 4.778169261841787 0 0 0
71 1 12.341775599444434 7.083760791288035 4.574592141358906 0 0 0
73 1 14.092210405154475 6.969244457286034 2.9566293077600463 0 0 0
75 1 16.141747451013153 7.102741452254831 4.647847509018587 0 0 0
140 1 12.537025962152747 5.308235633817269 6.356291735594228 0 0 0
144 1 16.064720097088344 5.423230699689702 6.525604041652227 0 0 0
171 1 14.224701187250597 7.07977425059555 6.459439187861991 0 0 0
798 1 21.292172925742516 12.394715554770018 8.224729258609582 0 0 0
52 1 17.82245255235417 5.275462219303472 4.743664687566616 0 0 0
893 1 19.598193328624905 12.293062997224965 10.025364220027331 0 0 0
79 1 19.592488249479384 7.198703615857818 4.818899288731615 0 0 0
148 1 19.53160413152248 5.254929051613312 6.4886904999214705 0 0 0
175 1 17.73189836046657 7.124684370541607 6.552853140265655 0 0 0
891 1 15.995621952393297 12.27912663574509 10.023863726360899 0 0 0
56 1 21.22307925821316 5.383964971372779 4.731613384202219 0 0 0
794 1 14.106575058183559 12.374617202570645 8.132868248159443 0 0 0
83 1 23.150681780178655 6.968810441475602 4.874708094866822 0 0 0
152 1 23.089146673701197 5.3021318453053405 6.601138837038717 0 0 0
179 1 21.130340290076397 7.154301881913728 6.579993580508154 0 0 0
887 1 8.826502202218004 12.373940191461019 10.171975424308124 0 0 0
60 1 24.86743795868203 8.870478479935556 4.794566044209388 -1 0 0
64 1 3.6055656495190673 8.722110816622036 4.7072990787379725 0 0 0
790 1 7.193054552675391 12.400958239609583 8.177440751685904 0 0 0
86 1 1.7672858560014806 10.445030236977816 4.625516838174269 0 0 0
883 1 1.6572475357010266 12.371077578240618 10.185009696634056 0 0 0
156 1 1.74096612785752 8.810707651299989 6.570738472380345 0 0 0
183 1 0.12833788491168668 10.58925238369544 6.428896622073519 0 0 0
185 1 3.481830746124323 10.386695070723535 6.541647369899543 0 0 0
786 1 0.10635408330842211 12.314615858214145 8.184950989006536 0 0 0
68 1 7.043086095117002 8.894740196277771 4.681117573998449 0 0 0
88 1 5.46635014721964 10.57518628628672 4.694670478504661 0 0 0
797 1 23.192651333674444 12.251531838784768 6.495228562015779 0 0 0
160 1 5.340296621584751 8.819638358188215 6.553776262843305 0 0 0
187 1 7.034269312472636 10.792133317871382 6.460852951401799 0 0 0
66 1 8.757590720705098 8.849544207055294 2.9995470719000643 0 0 0
72 1 10.57013065199084 8.950258699189384 4.660351867362149 0 0 0
90 1 8.815968178479634 10.68727312594922 4.713336736612233 0 0 0
795 1 19.58318400952928 12.32602929205348 6.475961401826504 0 0 0
164 1 8.696514635296333 8.976969200737697 6.418427804053187 0 0 0
189 1 10.724051100203669 10.7392542192813 6.3883442854569825 0 0 0
696 1 14.227471632843482 12.300902136213393 4.539595193759993 0 0 0
694 1 10.705454581308983 12.383545146283716 4.644611685052927 0 0 0
76 1 14.221396284704683 8.70406766953127 4.6559444494547755 0 0 0
92 1 12.497367026851185 10.599303868430404 4.496001287004882 0 0 0
93 1 14.178798221053015 10.554129007913767 2.932269455595453 0 0 0
94 1 15.931373406076016 10.628684033649728 4.67842861229744 0 0 0
168 1 12.39426058775287 8.908322142413331 6.328375143403221 0 0 0
172 1 16.028146086295994 8.936086210319973 6.5315095913063335 0 0 0
191 1 14.185851473361678 10.629001169187438 6.317189500099497 0 0 0
78 1 19.547138876929665 8.862894435400118 2.9669210325078805 0 0 0
80 1 17.696306318452336 8.838987192992242 4.628942856369669 0 0 0
692 1 7.017664577078419 12.375247690318833 4.5520771204709485 0 0 0
96 1 19.45287557216842 10.6035916755511 4.711160154858344 0 0 0
176 1 19.489086723973983 8.814518554056985 6.473866508993286 0 0 0
193 1 17.768116443015245 10.537225124166667 6.564160501120696 0 0 0
687 1 1.7492203924258827 12.303513982386967 3.0176824053499436 0 0 0
84 1 21.41248629389484 8.742379304843592 4.712702003358428 0 0 0
97 1 21.342335756751613 10.636870810899328 2.9870789966445583 0 0 0
98 1 23.049349903574413 10.555948759146117 4.682607934808875 0 0 0
180 1 23.001052582873296 8.74694597701227 6.470524607290776 0 0 0
195 1 21.35807694581532 10.576377301723625 6.636656865857082 0 0 0
288 1 12.408891089301168 10.56874897807726 11.80453033958241 0 0 0
102 1 0.040228001045763795 1.7685244573636583 8.239124452311408 0 0 0
106 1 3.358952188713955 1.6412065816083605 8.109668946450146 0 0 0
129 1 1.60134708061804 3.537742346986266 8.268317292568483 0 0 0
272 1 14.136579226692218 8.794449128333342 11.858997971765586 0 0 0
198 1 1.8586260177431289 1.73212068480566 10.048060063068114 0 0 0
340 1 10.52368204562698 10.556834022644136 13.644154258360967 0 0 0
225 1 24.844398678255747 3.560407821468136 10.188548361618881 -1 0 0
229 1 3.4924621743695727 3.6050767087499342 10.000446623780817 0 0 0
328 1 8.680259867874438 8.779266906528708 13.711143047681388 0 0 0
110 1 7.103659838986012 1.818067220134313 8.081405828033208 0 0 0
133 1 5.243139353548939 3.4251435796792493 8.36263455681426 0 0 0
202 1 5.238383547634775 1.6154164290453483 10.013143500547203 0 0 0
286 1 8.912174166862492 10.555679131484748 11.810893043117492 0 0 0
233 1 6.9058443666211495 3.441047350763416 10.035305988722008 0 0 0
268 1 10.631421054574975 8.848885940487394 11.833601421489334 0 0 0
114 1 10.626409235112618 1.7812251225090774 8.234929855881841 0 0 0
137 1 8.844844805876726 3.48986326700327 8.167963225292977 0 0 0
206 1 8.826229284623532 1.6973197032610938 10.037809353449223 0 0 0
339 1 7.0362372346229245 10.57820055789516 13.77565829338186 0 0 0
237 1 10.579053376491359 3.6489234481649677 10.0106453858882 0 0 0
113 1 12.34800848881727 0.021702752930576982 8.284308788462905 0 0 0
326 1 5.2241724288133575 8.894794116857707 13.524123467933856 0 0 0
118 1 14.17159319687365 1.782963136864598 8.173607256758205 0 0 0
141 1 12.40991648353621 3.5263852453767726 8.186250748509483 0 0 0
145 1 16.03635422769746 3.5461835238686517 8.2036105272329 0 0 0
210 1 12.379925248850718 1.8144042941218081 9.94391939801871 0 0 0
213 1 14.149447339047725 -0.0158033487124231 10.075574804987621 0 0 0
214 1 16.02154770816771 1.59897533945078 10.000383136071584 0 0 0
241 1 14.271593937665479 3.3980962491916586 9.961447716737199 0 0 0
121 1 19.502976299993353 0.07766065014897933 8.089989764034685 0 0 0
122 1 17.830265110629743 1.6844972377586318 8.197737681319607 0 0 0
149 1 19.41626786395099 3.3838652630497714 8.316201495524105 0 0 0
284 1 5.333889947082942 10.641073221117507 11.773441180200022 0 0 0
218 1 19.639895129761094 1.657974573663186 10.095069911811244 0 0 0
245 1 17.736914776025557 3.4078249138039127 10.140721721420043 0 0 0
125 1 23.0217321529402 -0.07001473491828991 8.120203138990954 0 0 0
126 1 21.299476568887602 1.742126898615855 8.289664146692832 0 0 0
153 1 23.045622756694883 3.53582395794486 8.294961110390528 0 0 0
221 1 21.36304198807375 0.037549665966081586 9.995619604004286 0 0 0
222 1 23.173891895168413 1.774626398525927 9.9474775090907 0 0 0
249 1 21.34745807513883 3.4994259363192888 10.019412913238401 0 0 0
130 1 24.81401936762528 5.2349953857082125 8.37148407513957 -1 0 0
134 1 3.4916379992866093 5.298035268232639 8.303081427011639 0 0 0
157 1 1.573422651710843 6.9880366012209985 8.387647759579677 0 0 0
226 1 1.6256619989702312 5.302627984117388 10.04058481029406 0 0 0
253 1 -0.02051139008267744 7.042878301164888 10.002470980055316 0 0 0
257 1 3.4697236842318016 7.044046636508149 10.050759263124316 0 0 0
138 1 6.945180948408728 5.312618011926025 8.243744943307718 0 0 0
161 1 5.2405342703119935 7.041340354955227 8.29359032775855 0 0 0
230 1 5.279033610742455 5.340669760864874 10.046664471458115 0 0 0
261 1 6.965882535605856 7.086597779928659 9.967141238060375 0 0 0
142 1 10.661200221955724 5.363593337559435 8.184105899811133 0 0 0
165 1 8.884163791081697 6.991761001332218 8.201370160781757 0 0 0
234 1 8.746421315687265 5.366523240872044 9.903241793031263 0 0 0
265 1 10.505014588795865 7.13839125718728 9.902288599230218 0 0 0
146 1 14.299161418414243 5.265504374905414 8.243318006525787 0 0 0
169 1 12.499508813540508 7.052329833239181 8.24851249786545 0 0 0
173 1 15.955861773258345 7.173706199489662 8.303022079902545 0 0 0
238 1 12.404095529024257 5.328752420035031 10.087773396477965 0 0 0
242 1 16.0532108803659 5.290452320459213 10.076287375813184 0 0 0
269 1 14.161601930214154 7.065096889154116 10.061349902813468 0 0 0
150 1 17.751219088701532 5.329925580441567 8.243108285040588 0 0 0
177 1 19.540745833457017 7.07698820758354 8.328048346849043 0 0 0
246 1 19.631925885198232 5.258383339994061 9.903753161022156 0 0 0
273 1 17.62881373319024 7.127117772997085 10.08380639810369 0 0 0
154 1 21.19022317476718 5.355204579280134 8.193318456448768 0 0 0
181 1 23.025571712284012 7.11021859275931 8.278947146304564 0 0 0
250 1 23.13493571079517 5.375243304282463 10.135801143598783 0 0 0
277 1 21.195301939904517 7.080938478640119 10.083621363333087 0 0 0
158 1 -0.05468105211417094 8.98813598159489 8.292548280644375 0 0 0
162 1 3.547107431941008 8.731891856978521 8.284475572684135 0 0 0
184 1 1.7359559589524194 10.669852301974402 8.269383879951128 0 0 0
254 1 1.656635301031898 8.820197672746994 10.175724656886189 0 0 0
281 1 24.842685025759653 10.554252879660243 10.049448793613708 -1 0 0
283 1 3.598492941236941 10.60432113151208 10.036580062916656 0 0 0
166 1 7.132798173549683 8.861249970986048 8.433269266439787 0 0 0
186 1 5.311082880180875 10.788417681954117 8.185775046270841 0 0 0
258 1 5.277767974685209 8.816494463700813 9.944053304409984 0 0 0
285 1 7.214213371994342 10.699866232071617 10.04170394857907 0 0 0
170 1 10.70982151364466 8.873968838716792 8.169938552348857 0 0 0
188 1 8.942867088186647 10.544268889454138 8.294555168388737 0 0 0
262 1 8.836524516839912 8.874221646155577 9.966242468332009 0 0 0
287 1 10.701566472984533 10.589658529386185 9.997425095698105 0 0 0
174 1 13.967110944352129 8.897201636991971 8.208063936922482 0 0 0
190 1 12.396135143806948 10.63077123013655 8.204982628775547 0 0 0
192 1 16.105516782914854 10.679545500495303 8.245829954104105 0 0 0
266 1 12.368779008096862 8.795162055392895 9.987216322352168 0 0 0
270 1 15.78354685474103 8.919307301499574 9.995852823080256 0 0 0
289 1 14.138696730704597 10.639077369656572 10.026797151970975 0 0 0
178 1 17.84562891343979 8.85237908986241 8.352457371694678 0 0 0
194 1 19.623136165319885 10.602842686680331 8.320260566525327 0 0 0
274 1 19.536514410101663 8.771848832912196 9.98523418315451 0 0 0
291 1 17.845224664164135 10.57044096590958 10.05351657127112 0 0 0
182 1 21.279153202780016 8.836224991375246 8.222583390178006 0 0 0
196 1 23.033709552384284 10.566021901702891 8.339978129861906 0 0 0
278 1 23.20229334161926 8.817653442695901 10.045208287164836 0 0 0
293 1 21.32695045920419 10.53807607022179 10.156705794079492 0 0 0
199 1 1.6716950599791263 0.06006760344691425 11.75902020264256 0 0 0
200 1 -0.02193062406845283 1.7423927241520314 11.9010157619809 0 0 0
204 1 3.561018993632056 1.6813861239548697 11.822357467670411 0 0 0
227 1 1.7516422993586933 3.4684348309794646 11.757391585802475 0 0 0
264 1 6.959450341590097 8.871750954375877 11.752368240967261 0 0 0
296 1 1.657484549452275 1.6740954951962572 13.638602795661228 0 0 0
338 1 3.525990666483955 10.60519018906342 13.69342659684062 0 0 0
309 1 24.865188227114118 3.4960152525971053 13.660631985876238 -1 0 0
311 1 3.6156778245274155 3.4010995267008397 13.600441890845177 0 0 0
337 1 24.8457257999444 10.63552522863031 13.500644927043567 -1 0 0
208 1 7.158676011016925 1.7666001797122453 11.80790404864572 0 0 0
231 1 5.42267456276837 3.526182678352596 11.948986244090463 0 0 0
298 1 5.322555916155862 1.6452818433042802 13.649209804299295 0 0 0
324 1 1.6530872407770487 8.873015159040808 13.694259523369047 0 0 0
313 1 7.169935116830723 3.520661274026974 13.643242587299051 0 0 0
207 1 8.788113677142416 -0.026091590520154584 11.82069716660669 0 0 0
212 1 10.560803912064646 1.78915469734452 11.75296393749135 0 0 0
235 1 8.824546129949582 3.4647898545694287 11.704073358338537 0 0 0
300 1 8.894941704745433 1.6472982496633037 13.66461382794565 0 0 0
282 1 1.7940735088882602 10.585562886134403 11.880768203612462 0 0 0
315 1 10.510040406398813 3.4603341079666357 13.520390280223907 0 0 0
260 1 3.535272416368062 8.93993537002301 11.727252277344801 0 0 0
215 1 15.96875320676402 -0.05799636981731725 11.724811804936758 0 0 0
216 1 13.97631186470925 1.656504328797026 11.84180514430234 0 0 0
239 1 12.343836227429529 3.515225651673956 11.810036269430801 0 0 0
243 1 16.00148451004605 3.394017048575867 11.781695964667083 0 0 0
302 1 12.30016325698937 1.6944714260103901 13.647936762494664 0 0 0
303 1 14.131032536708048 -0.05278121330601597 13.55361162474457 0 0 0
304 1 15.929386650016628 1.4852217967514938 13.583456539360059 0 0 0
317 1 14.120222116170828 3.2960352905132857 13.532233384110446 0 0 0
219 1 19.553967660251875 0.01812840991958624 11.866223686491452 0 0 0
220 1 17.757865311554948 1.6308286709130324 11.809802941787213 0 0 0
247 1 19.626451694773593 3.4913751351880844 11.924365406262543 0 0 0
256 1 24.833584630272306 8.73202079919249 11.918197322795368 -1 0 0
306 1 19.48165730937283 1.7598038554913447 13.729056452580304 0 0 0
319 1 17.77031509925549 3.435625745269495 13.65963643617888 0 0 0
223 1 23.13569899299781 0.06624761631973888 11.878513852708306 0 0 0
224 1 21.352797926143005 1.731389477804349 11.809501444407129 0 0 0
251 1 23.08399243600075 3.580389884352719 11.846956342171493 0 0 0
307 1 21.379391744826115 0.006262597180562407 13.868673894115126 0 0 0
308 1 23.065983372249967 1.7697208335206644 13.630324091201334 0 0 0
321 1 21.34744347908046 3.6167694267966026 13.684799486736628 0 0 0
228 1 0.04383447285085347 5.384268589035353 11.937991740648535 0 0 0
232 1 3.477401823114052 5.214706701995872 11.819944031524903 0 0 0
255 1 1.9067682368135483 6.987534037648302 11.99064715284245 0 0 0
310 1 1.803185980015595 5.121004136309108 13.796938964424447 0 0 0
323 1 24.83165173306119 7.019428530279739 13.64732605021616 -1 0 0
325 1 3.426300443267334 7.029201843175998 13.757472605848156 0 0 0
236 1 7.0330836454872525 5.244059223758748 11.793674849895286 0 0 0
259 1 5.166638986852459 7.123516970201127 11.646808808435495 0 0 0
312 1 5.255490035525829 5.402213588184073 13.692967030242091 0 0 0
327 1 6.957851435536289 6.934894380323513 13.60306805360853 0 0 0
240 1 10.514748681489259 5.357671873281669 11.60548567673386 0 0 0
263 1 8.875259545111916 7.059786006754695 11.771273001690284 0 0 0
314 1 8.974913087339363 5.365267586583229 13.508477507102612 0 0 0
329 1 10.621768994420805 7.167628085205732 13.72788792714417 0 0 0
244 1 14.204057028981117 5.189466384603244 11.83555875037986 0 0 0
267 1 12.197011013919502 7.1203396384099715 11.746144580254073 0 0 0
271 1 15.873253076224357 7.06053059067339 11.797833902417619 0 0 0
316 1 12.24511019097018 5.351094051260625 13.529703804244157 0 0 0
318 1 16.008411989668037 5.175405182803485 13.636923240074172 0 0 0
331 1 14.131900935900973 6.848963293881907 13.449450419924302 0 0 0
248 1 17.862634339284 5.274064373860567 11.759887046086968 0 0 0
275 1 19.511380095216264 7.113208044843911 11.797565343231248 0 0 0
320 1 19.535975542760657 5.292983437700731 13.641472570069752 0 0 0
333 1 17.658023197735115 6.941866217600651 13.569263299579568 0 0 0
252 1 21.35178808223828 5.2642693566349585 11.863453244996057 0 0 0
279 1 23.074858133074297 7.131422695024319 12.006056754372665 0 0 0
322 1 23.13735492259131 5.202051875375211 13.65087518543772 0 0 0
335 1 21.37167864024888 7.009136325234745 13.74504498650478 0 0 0
1029 1 23.016171862664805 23.14565428269919 13.657030928399074 0 0 0
688 1 0.04100904841122896 12.409216937906764 4.767132205251641 0 0 0
690 1 3.4687918519711074 12.417584116465425 4.746206740556467 0 0 0
701 1 24.883336867363802 14.232663826526247 3.0225312536625792 -1 0 0
305 1 17.750368787239164 24.853820637735666 13.705263867904005 0 -1 0
703 1 1.6679140940880384 14.187609002410046 4.688120699199047 0 0 0
704 1 -0.03380914161399607 16.08084845661754 4.769364464211789 0 0 0
705 1 3.4027177393267394 14.178512616495235 2.9745198434723563 0 0 0
708 1 3.4727936471684493 15.920148321975752 4.725894744203532 0 0 0
785 1 1.6995694572127518 12.417779162960024 6.518369526314519 0 0 0
799 1 24.82799979381259 14.155543967778305 6.511388948482631 -1 0 0
800 1 1.7459073982875912 15.869345320741358 6.525456594864718 0 0 0
803 1 3.467976479235903 14.171007255073595 6.580655865096344 0 0 0
1028 1 21.2758469837462 21.314074824657883 13.703582507525704 0 0 0
980 1 21.2358977954031 23.25597119149841 12.003074830384406 0 0 0
706 1 5.415491827990634 16.056435000420564 2.9244262319304366 0 0 0
707 1 5.273757621273856 14.164485511854071 4.621519589676286 0 0 0
709 1 6.983670665898372 14.16398220516883 2.9488657957943585 0 0 0
712 1 7.057007138179424 15.973583361430109 4.790473073921842 0 0 0
787 1 5.266837759994882 12.490449974279473 6.530582181975101 0 0 0
804 1 5.313013527223213 15.82383209675349 6.41850500389093 0 0 0
807 1 7.16586487911497 14.14297838017398 6.428845167947228 0 0 0
211 1 12.35341335603516 24.70971787228859 11.827218735157318 0 -1 0
979 1 23.095007973632047 21.423460790220332 11.95888939073076 0 0 0
710 1 8.813631281456834 16.011381600315982 2.956417941610509 0 0 0
711 1 8.853669555195259 14.126236513514543 4.615637457208441 0 0 0
301 1 10.673309482451396 24.861556348207966 13.525752935031665 0 -1 0
716 1 10.678319291682154 15.860387848259647 4.7688887265470195 0 0 0
789 1 8.899128144722157 12.44923143392753 6.52246227538159 0 0 0
808 1 8.897066780530114 15.835624947485973 6.449064821448106 0 0 0
811 1 10.710491395301492 14.257431250035095 6.502171184171654 0 0 0
1027 1 19.482253544147312 23.167142037049665 13.683400044065563 0 0 0
1026 1 17.88434367510429 21.38795118145505 13.621221219746616 0 0 0
976 1 17.902637506205664 23.114892907773292 11.808466743075165 0 0 0
299 1 7.078994829703858 24.870291698952077 13.649723780892918 0 -1 0
715 1 12.483645834572753 14.134017142276885 4.600083944710827 0 0 0
203 1 5.307577038516341 24.80763530871008 11.819755499466408 0 -1 0
297 1 3.5136850648462694 24.804455448609154 13.587851111752995 0 -1 0
719 1 15.976889943071122 14.044536150300477 4.636314054596317 0 0 0
720 1 14.164245284971269 15.878215490754892 4.593939154894897 0 0 0
791 1 12.487676433765216 12.441916934717709 6.3563266433694405 0 0 0
793 1 15.961739727284222 12.44834742559643 6.454787578422211 0 0 0
812 1 12.480957732594451 15.900084788588506 6.357970962058602 0 0 0
815 1 14.252177053496293 14.159321887806437 6.412525050839806 0 0 0
816 1 16.01346480460256 16.012073697889363 6.574528002233275 0 0 0
975 1 19.60123738215643 21.231878355219944 11.876181888827416 0 0 0
698 1 17.713302693382566 12.47707970521516 4.724629594067965 0 0 0
721 1 17.74034969139401 14.080774411592543 2.9971403033996555 0 0 0
295 1 24.832423191974794 24.87140158996758 13.700756647182661 -1 -1 0
723 1 19.558000524190568 14.105967509947385 4.815277355725049 0 0 0
724 1 17.713238163528036 15.839552500786425 4.722735441466837 0 0 0
1025 1 16.08106932644398 23.16126944877235 13.542657660701481 0 0 0
819 1 17.774699064595417 14.201507515021314 6.631137840266766 0 0 0
820 1 19.585281696299585 15.931292764380625 6.429638185793513 0 0 0
699 1 23.06309842103694 12.485771295496752 2.9326298053348068 0 0 0
700 1 21.162524355705845 12.433876780316828 4.635115351436175 0 0 0
217 1 17.74447753052509 24.87075454406369 10.032620140123182 0 -1 0
117 1 15.966062531629404 24.88266750110183 8.235453450943556 0 -1 0
727 1 23.034279607518236 14.101893426265239 4.7011774261142385 0 0 0
728 1 21.313977950318407 15.748234053394532 4.661405180385217 0 0 0
1024 1 14.15667120400199 21.462040108872877 13.670855163673043 0 0 0
823 1 21.343067837146442 14.019587483446523 6.378896159011473 0 0 0
824 1 23.04783413580878 15.838260896150246 6.484401657013523 0 0 0
209 1 10.492966637385935 24.86052666904055 10.18776071633954 0 -1 0
109 1 8.97814480780604 24.872332429628518 8.161862688982197 0 -1 0
731 1 1.629514367706088 17.716805630467423 4.763009116310554 0 0 0
732 1 -0.06430373600043085 19.603967506505796 4.751197388137975 0 0 0
733 1 3.4803472802465825 17.84238638513821 3.01321838532494 0 0 0
736 1 3.41775276455648 19.489814526711545 4.733604549978607 0 0 0
827 1 24.83201675791224 17.689678805397193 6.453298068382325 -1 0 0
828 1 1.7231197824885387 19.51787962909556 6.503140937684748 0 0 0
831 1 3.528690661540172 17.56062659843952 6.629629292102042 0 0 0
205 1 7.077822498860389 24.79140130578866 10.060151494802298 0 -1 0
735 1 5.3182218956675955 17.83333536617682 4.87101410913655 0 0 0
737 1 7.162398996607222 17.750195657377866 3.0013899057893956 0 0 0
740 1 7.060396606299032 19.488615207157267 4.735752454815031 0 0 0
832 1 5.442839301991659 19.579011270048433 6.562578070872609 0 0 0
835 1 7.07622416926703 17.796849465078605 6.576677047367166 0 0 0
105 1 5.428790694250382 24.858354975198406 8.150005906934577 0 -1 0
739 1 8.851168547501109 17.726473199432874 4.801031834120771 0 0 0
741 1 10.634216289683025 17.804708232005183 3.0324291059137374 0 0 0
744 1 10.786361420753776 19.55300705984726 4.7830445916471795 0 0 0
836 1 8.977248114490772 19.44048488167318 6.596181996878784 0 0 0
839 1 10.675722049677093 17.798988438728944 6.4679614105596945 0 0 0
742 1 12.425472833745443 19.424920173877073 2.9846705429115628 0 0 0
743 1 12.460521438386078 17.61724601423341 4.733852893301338 0 0 0
201 1 3.4290220286157576 24.786057589293463 9.962476883573114 0 -1 0
746 1 15.91712384300746 19.509000421615116 3.046905848215041 0 0 0
747 1 15.933104074472347 17.663952998743937 4.779175150133162 0 0 0
748 1 14.165640672284566 19.544739979116986 4.805566651760425 0 0 0
840 1 12.471427045948806 19.385817529092172 6.5378864224456725 0 0 0
843 1 14.277492767070127 17.649395868985746 6.586944739624119 0 0 0
844 1 16.035223955668627 19.464885323527593 6.423771696107687 0 0 0
749 1 17.77531592949201 17.74005249943816 3.081444718548714 0 0 0
197 1 -0.0641715844574759 24.85352255143038 9.97578518476299 0 -1 0
751 1 19.537154348477912 17.76607209065955 4.674662013063906 0 0 0
752 1 17.804018906353186 19.535323023055295 4.607879262469262 0 0 0
847 1 17.87092180720324 17.75164870876425 6.4597424082976875 0 0 0
848 1 19.56146297736149 19.51288807035849 6.340085807628323 0 0 0
753 1 21.336462346628718 17.67874878369479 3.0005537613730757 0 0 0
101 1 1.6660797113383277 24.84497390258031 8.12081092971573 0 -1 0
755 1 23.08574773573047 17.910199937375317 4.536050134226054 0 0 0
756 1 21.27727952322458 19.56254571638371 4.6408983818981255 0 0 0
851 1 21.36258774219649 17.793608929944433 6.457921636956962 0 0 0
852 1 23.048752094738134 19.491906973450142 6.401743091015983 0 0 0
757 1 0.0573521875899381 21.27101193048873 2.9503693422100628 0 0 0
758 1 1.7733706158282003 22.95672558319069 2.9873849245250446 0 0 0
759 1 1.711670971438452 21.31712977701939 4.759372381829705 0 0 0
760 1 24.862042640380587 23.170514707307767 4.688711931726306 -1 0 0
123 1 21.281987157553186 24.880308548740384 6.419929744991279 0 -1 0
764 1 3.6827557924201075 23.083384239759905 4.601085091810202 0 0 0
855 1 -0.06859489275754801 21.313850945633913 6.388315139511175 0 0 0
856 1 1.6282890508352237 23.155976803022035 6.33135021487152 0 0 0
859 1 3.4742488145970736 21.305608375984992 6.4081112130836 0 0 0
762 1 5.4602760738953515 23.018864406885168 2.9714568754706363 0 0 0
763 1 5.220795198907663 21.203905877879173 4.692590283117861 0 0 0
765 1 7.051683726586234 21.27618418002906 3.026895446125021 0 0 0
768 1 7.184924305719247 23.079630576543014 4.670183100743858 0 0 0
860 1 5.453835588976567 23.00115544283939 6.497216506928419 0 0 0
863 1 7.134491006723149 21.244856429119 6.503214512570169 0 0 0
766 1 8.918641503301748 22.944656477629916 2.9497850262582226 0 0 0
767 1 8.985023167073457 21.160951396305897 4.822333127890275 0 0 0
769 1 10.895944092162054 21.378126801024905 3.1018416797451187 0 0 0
772 1 10.661407482120485 23.192329863872914 4.662466278323388 0 0 0
864 1 8.883317265323287 23.025127221971665 6.333258090290168 0 0 0
867 1 10.670562830631876 21.350627390855685 6.615078180714128 0 0 0