LAMMPS data file. CGCMM style. atom_style full generated by VMD/TopoTools v1.7 on Wed Jan 06 09:41:28 +0545 2021
 138 atoms
 190 bonds
 346 angles
 0 dihedrals
 0 impropers
 1 atom types
 1 bond types
 1 angle types
 0 dihedral types
 0 improper types
 0.267650 28.767650  xlo xhi
 0.302179 1.302179  ylo yhi
 0.440161 12.440161  zlo zhi

# Pair Coeffs
#
# 1  C

# Bond Coeffs
#
# 1  

# Angle Coeffs
#
# 1  C-C-C

 Masses

 1 12.011000 # C

 Atoms # full

1 1 1 0.000000 0.490339 0.802179 1.470173 # C 1
2 1 1 0.000000 1.720093 0.802179 3.600166 # C 1
3 1 1 0.000000 0.490339 0.802179 2.890167 # C 1
4 1 1 0.000000 1.720093 0.802179 0.760174 # C 1
5 1 1 0.000000 2.949844 0.802179 1.470173 # C 1
6 1 1 0.000000 4.179594 0.802179 3.600166 # C 1
7 1 1 0.000000 2.949844 0.802179 2.890167 # C 1
8 1 1 0.000000 4.179594 0.802179 0.760174 # C 1
9 1 1 0.000000 5.409348 0.802179 1.470173 # C 1
10 1 1 0.000000 6.639101 0.802179 3.600166 # C 1
11 1 1 0.000000 5.409348 0.802179 2.890167 # C 1
12 1 1 0.000000 6.639101 0.802179 0.760174 # C 1
13 1 1 0.000000 7.868855 0.802179 1.470173 # C 1
14 1 1 0.000000 9.098606 0.802179 3.600166 # C 1
15 1 1 0.000000 7.868855 0.802179 2.890167 # C 1
16 1 1 0.000000 9.098606 0.802179 0.760174 # C 1
17 1 1 0.000000 10.328360 0.802179 1.470173 # C 1
18 1 1 0.000000 11.558113 0.802179 3.600166 # C 1
19 1 1 0.000000 10.328360 0.802179 2.890167 # C 1
20 1 1 0.000000 11.558113 0.802179 0.760174 # C 1
21 1 1 0.000000 12.787867 0.802179 1.470173 # C 1
22 1 1 0.000000 14.017620 0.802179 3.600166 # C 1
23 1 1 0.000000 12.787867 0.802179 2.890167 # C 1
24 1 1 0.000000 14.017620 0.802179 0.760174 # C 1
25 1 1 0.000000 15.247375 0.802179 1.470173 # C 1
26 1 1 0.000000 16.477137 0.802179 3.600166 # C 1
27 1 1 0.000000 15.247375 0.802179 2.890167 # C 1
28 1 1 0.000000 16.477137 0.802179 0.760174 # C 1
29 1 1 0.000000 17.706888 0.802179 1.470173 # C 1
30 1 1 0.000000 18.936644 0.802179 3.600166 # C 1
31 1 1 0.000000 17.706888 0.802179 2.890167 # C 1
32 1 1 0.000000 18.936644 0.802179 0.760174 # C 1
33 1 1 0.000000 20.166401 0.802179 1.470173 # C 1
34 1 1 0.000000 21.396154 0.802179 3.600166 # C 1
35 1 1 0.000000 20.166401 0.802179 2.890167 # C 1
36 1 1 0.000000 21.396154 0.802179 0.760174 # C 1
37 1 1 0.000000 22.625906 0.802179 1.470173 # C 1
38 1 1 0.000000 23.855663 0.802179 3.600166 # C 1
39 1 1 0.000000 22.625906 0.802179 2.890167 # C 1
40 1 1 0.000000 23.855663 0.802179 0.760174 # C 1
41 1 1 0.000000 25.085426 0.802179 1.470173 # C 1
42 1 1 0.000000 26.315182 0.802179 3.600166 # C 1
43 1 1 0.000000 25.085426 0.802179 2.890167 # C 1
44 1 1 0.000000 26.315182 0.802179 0.760174 # C 1
45 1 1 0.000000 0.490339 0.802179 5.730164 # C 1
46 1 1 0.000000 1.720093 0.802179 7.860161 # C 1
47 1 1 0.000000 0.490339 0.802179 7.150162 # C 1
48 1 1 0.000000 1.720093 0.802179 5.020164 # C 1
49 1 1 0.000000 2.949844 0.802179 5.730164 # C 1
50 1 1 0.000000 4.179594 0.802179 7.860161 # C 1
51 1 1 0.000000 2.949844 0.802179 7.150162 # C 1
52 1 1 0.000000 4.179594 0.802179 5.020164 # C 1
53 1 1 0.000000 5.409348 0.802179 5.730164 # C 1
54 1 1 0.000000 6.639101 0.802179 7.860161 # C 1
55 1 1 0.000000 5.409348 0.802179 7.150162 # C 1
56 1 1 0.000000 6.639101 0.802179 5.020164 # C 1
57 1 1 0.000000 7.868855 0.802179 5.730164 # C 1
58 1 1 0.000000 9.098606 0.802179 7.860161 # C 1
59 1 1 0.000000 7.868855 0.802179 7.150162 # C 1
60 1 1 0.000000 9.098606 0.802179 5.020164 # C 1
61 1 1 0.000000 10.328360 0.802179 5.730164 # C 1
62 1 1 0.000000 11.558113 0.802179 7.860161 # C 1
63 1 1 0.000000 10.328360 0.802179 7.150162 # C 1
64 1 1 0.000000 11.558113 0.802179 5.020164 # C 1
65 1 1 0.000000 12.787867 0.802179 5.730164 # C 1
66 1 1 0.000000 14.017620 0.802179 7.860161 # C 1
67 1 1 0.000000 12.787867 0.802179 7.150162 # C 1
68 1 1 0.000000 14.017620 0.802179 5.020164 # C 1
69 1 1 0.000000 15.247375 0.802179 5.730164 # C 1
70 1 1 0.000000 16.477137 0.802179 7.860161 # C 1
71 1 1 0.000000 15.247375 0.802179 7.150162 # C 1
72 1 1 0.000000 16.477137 0.802179 5.020164 # C 1
73 1 1 0.000000 17.706888 0.802179 5.730164 # C 1
74 1 1 0.000000 18.936644 0.802179 7.860161 # C 1
75 1 1 0.000000 17.706888 0.802179 7.150162 # C 1
76 1 1 0.000000 18.936644 0.802179 5.020164 # C 1
77 1 1 0.000000 20.166401 0.802179 5.730164 # C 1
78 1 1 0.000000 21.396154 0.802179 7.860161 # C 1
79 1 1 0.000000 20.166401 0.802179 7.150162 # C 1
80 1 1 0.000000 21.396154 0.802179 5.020164 # C 1
81 1 1 0.000000 22.625906 0.802179 5.730164 # C 1
82 1 1 0.000000 23.855663 0.802179 7.860161 # C 1
83 1 1 0.000000 22.625906 0.802179 7.150162 # C 1
84 1 1 0.000000 23.855663 0.802179 5.020164 # C 1
85 1 1 0.000000 25.085426 0.802179 5.730164 # C 1
86 1 1 0.000000 26.315182 0.802179 7.860161 # C 1
87 1 1 0.000000 25.085426 0.802179 7.150162 # C 1
88 1 1 0.000000 26.315182 0.802179 5.020164 # C 1
89 1 1 0.000000 0.490339 0.802179 9.990158 # C 1
90 1 1 0.000000 1.720093 0.802179 12.120148 # C 1
91 1 1 0.000000 0.490339 0.802179 11.410149 # C 1
92 1 1 0.000000 1.720093 0.802179 9.280159 # C 1
93 1 1 0.000000 2.949844 0.802179 9.990158 # C 1
94 1 1 0.000000 4.179594 0.802179 12.120148 # C 1
95 1 1 0.000000 2.949844 0.802179 11.410149 # C 1
96 1 1 0.000000 4.179594 0.802179 9.280159 # C 1
97 1 1 0.000000 5.409348 0.802179 9.990158 # C 1
98 1 1 0.000000 6.639101 0.802179 12.120148 # C 1
99 1 1 0.000000 5.409348 0.802179 11.410149 # C 1
100 1 1 0.000000 6.639101 0.802179 9.280159 # C 1
101 1 1 0.000000 7.868855 0.802179 9.990158 # C 1
102 1 1 0.000000 9.098606 0.802179 12.120148 # C 1
103 1 1 0.000000 7.868855 0.802179 11.410149 # C 1
104 1 1 0.000000 9.098606 0.802179 9.280159 # C 1
105 1 1 0.000000 10.328360 0.802179 9.990158 # C 1
106 1 1 0.000000 11.558113 0.802179 12.120148 # C 1
107 1 1 0.000000 10.328360 0.802179 11.410149 # C 1
108 1 1 0.000000 11.558113 0.802179 9.280159 # C 1
109 1 1 0.000000 12.787867 0.802179 9.990158 # C 1
110 1 1 0.000000 14.017620 0.802179 12.120148 # C 1
111 1 1 0.000000 12.787867 0.802179 11.410149 # C 1
112 1 1 0.000000 14.017620 0.802179 9.280159 # C 1
113 1 1 0.000000 15.247375 0.802179 9.990158 # C 1
114 1 1 0.000000 16.477137 0.802179 12.120148 # C 1
115 1 1 0.000000 15.247375 0.802179 11.410149 # C 1
116 1 1 0.000000 16.477137 0.802179 9.280159 # C 1
117 1 1 0.000000 17.706888 0.802179 9.990158 # C 1
118 1 1 0.000000 18.936644 0.802179 12.120148 # C 1
119 1 1 0.000000 17.706888 0.802179 11.410149 # C 1
120 1 1 0.000000 18.936644 0.802179 9.280159 # C 1
121 1 1 0.000000 20.166401 0.802179 9.990158 # C 1
122 1 1 0.000000 21.396154 0.802179 12.120148 # C 1
123 1 1 0.000000 20.166401 0.802179 11.410149 # C 1
124 1 1 0.000000 21.396154 0.802179 9.280159 # C 1
125 1 1 0.000000 22.625906 0.802179 9.990158 # C 1
126 1 1 0.000000 23.855663 0.802179 12.120148 # C 1
127 1 1 0.000000 22.625906 0.802179 11.410149 # C 1
128 1 1 0.000000 23.855663 0.802179 9.280159 # C 1
129 1 1 0.000000 25.085426 0.802179 9.990158 # C 1
130 1 1 0.000000 26.315182 0.802179 12.120148 # C 1
131 1 1 0.000000 25.085426 0.802179 11.410149 # C 1
132 1 1 0.000000 26.315182 0.802179 9.280159 # C 1
133 1 1 0.000000 27.544960 0.802179 1.470173 # C 1
134 1 1 0.000000 27.544960 0.802179 2.890167 # C 1
135 1 1 0.000000 27.544960 0.802179 5.730164 # C 1
136 1 1 0.000000 27.544960 0.802179 7.150162 # C 1
137 1 1 0.000000 27.544960 0.802179 9.990158 # C 1
138 1 1 0.000000 27.544960 0.802179 11.410149 # C 1

 Bonds

1 1 1 4
2 1 1 3
3 1 2 3
4 1 2 7
5 1 2 48
6 1 4 5
7 1 5 8
8 1 5 7
9 1 6 11
10 1 6 52
11 1 6 7
12 1 8 9
13 1 9 12
14 1 9 11
15 1 10 15
16 1 10 56
17 1 10 11
18 1 12 13
19 1 13 16
20 1 13 15
21 1 14 15
22 1 14 19
23 1 14 60
24 1 16 17
25 1 17 20
26 1 17 19
27 1 18 23
28 1 18 64
29 1 18 19
30 1 20 21
31 1 21 24
32 1 21 23
33 1 22 27
34 1 22 68
35 1 22 23
36 1 24 25
37 1 25 28
38 1 25 27
39 1 26 27
40 1 26 31
41 1 26 72
42 1 28 29
43 1 29 32
44 1 29 31
45 1 30 35
46 1 30 76
47 1 30 31
48 1 32 33
49 1 33 36
50 1 33 35
51 1 34 39
52 1 34 80
53 1 34 35
54 1 36 37
55 1 37 40
56 1 37 39
57 1 38 39
58 1 38 43
59 1 38 84
60 1 40 41
61 1 41 44
62 1 41 43
63 1 42 134
64 1 42 88
65 1 42 43
66 1 44 133
67 1 45 48
68 1 45 47
69 1 46 47
70 1 46 51
71 1 46 92
72 1 48 49
73 1 49 52
74 1 49 51
75 1 50 55
76 1 50 96
77 1 50 51
78 1 52 53
79 1 53 56
80 1 53 55
81 1 54 59
82 1 54 100
83 1 54 55
84 1 56 57
85 1 57 60
86 1 57 59
87 1 58 59
88 1 58 63
89 1 58 104
90 1 60 61
91 1 61 64
92 1 61 63
93 1 62 67
94 1 62 108
95 1 62 63
96 1 64 65
97 1 65 68
98 1 65 67
99 1 66 71
100 1 66 112
101 1 66 67
102 1 68 69
103 1 69 72
104 1 69 71
105 1 70 71
106 1 70 75
107 1 70 116
108 1 72 73
109 1 73 76
110 1 73 75
111 1 74 79
112 1 74 120
113 1 74 75
114 1 76 77
115 1 77 80
116 1 77 79
117 1 78 83
118 1 78 124
119 1 78 79
120 1 80 81
121 1 81 84
122 1 81 83
123 1 82 83
124 1 82 87
125 1 82 128
126 1 84 85
127 1 85 88
128 1 85 87
129 1 86 136
130 1 86 132
131 1 86 87
132 1 88 135
133 1 89 92
134 1 89 91
135 1 90 95
136 1 90 91
137 1 92 93
138 1 93 96
139 1 93 95
140 1 94 99
141 1 94 95
142 1 96 97
143 1 97 100
144 1 97 99
145 1 98 99
146 1 98 103
147 1 100 101
148 1 101 104
149 1 101 103
150 1 102 107
151 1 102 103
152 1 104 105
153 1 105 108
154 1 105 107
155 1 106 111
156 1 106 107
157 1 108 109
158 1 109 112
159 1 109 111
160 1 110 111
161 1 110 115
162 1 112 113
163 1 113 116
164 1 113 115
165 1 114 119
166 1 114 115
167 1 116 117
168 1 117 120
169 1 117 119
170 1 118 123
171 1 118 119
172 1 120 121
173 1 121 124
174 1 121 123
175 1 122 123
176 1 122 127
177 1 124 125
178 1 125 128
179 1 125 127
180 1 126 131
181 1 126 127
182 1 128 129
183 1 129 132
184 1 129 131
185 1 130 138
186 1 130 131
187 1 132 137
188 1 133 134
189 1 135 136
190 1 137 138

 Angles

1 1 3 1 4
2 1 3 2 7
3 1 3 2 48
4 1 7 2 48
5 1 1 3 2
6 1 1 4 5
7 1 7 5 8
8 1 4 5 8
9 1 4 5 7
10 1 11 6 52
11 1 7 6 11
12 1 7 6 52
13 1 5 7 6
14 1 2 7 5
15 1 2 7 6
16 1 5 8 9
17 1 8 9 12
18 1 8 9 11
19 1 11 9 12
20 1 15 10 56
21 1 11 10 15
22 1 11 10 56
23 1 6 11 9
24 1 9 11 10
25 1 6 11 10
26 1 9 12 13
27 1 12 13 16
28 1 12 13 15
29 1 15 13 16
30 1 15 14 19
31 1 15 14 60
32 1 19 14 60
33 1 10 15 13
34 1 10 15 14
35 1 13 15 14
36 1 13 16 17
37 1 19 17 20
38 1 16 17 20
39 1 16 17 19
40 1 23 18 64
41 1 19 18 23
42 1 19 18 64
43 1 17 19 18
44 1 14 19 17
45 1 14 19 18
46 1 17 20 21
47 1 20 21 24
48 1 20 21 23
49 1 23 21 24
50 1 27 22 68
51 1 23 22 27
52 1 23 22 68
53 1 18 23 21
54 1 21 23 22
55 1 18 23 22
56 1 21 24 25
57 1 24 25 28
58 1 24 25 27
59 1 27 25 28
60 1 27 26 31
61 1 27 26 72
62 1 31 26 72
63 1 22 27 25
64 1 22 27 26
65 1 25 27 26
66 1 25 28 29
67 1 31 29 32
68 1 28 29 32
69 1 28 29 31
70 1 35 30 76
71 1 31 30 35
72 1 31 30 76
73 1 29 31 30
74 1 26 31 29
75 1 26 31 30
76 1 29 32 33
77 1 32 33 36
78 1 32 33 35
79 1 35 33 36
80 1 39 34 80
81 1 35 34 39
82 1 35 34 80
83 1 30 35 33
84 1 33 35 34
85 1 30 35 34
86 1 33 36 37
87 1 36 37 40
88 1 36 37 39
89 1 39 37 40
90 1 39 38 43
91 1 39 38 84
92 1 43 38 84
93 1 34 39 37
94 1 34 39 38
95 1 37 39 38
96 1 37 40 41
97 1 43 41 44
98 1 40 41 44
99 1 40 41 43
100 1 88 42 134
101 1 43 42 134
102 1 43 42 88
103 1 41 43 42
104 1 38 43 41
105 1 38 43 42
106 1 41 44 133
107 1 47 45 48
108 1 47 46 51
109 1 47 46 92
110 1 51 46 92
111 1 45 47 46
112 1 2 48 45
113 1 2 48 49
114 1 45 48 49
115 1 51 49 52
116 1 48 49 52
117 1 48 49 51
118 1 55 50 96
119 1 51 50 55
120 1 51 50 96
121 1 49 51 50
122 1 46 51 49
123 1 46 51 50
124 1 6 52 53
125 1 6 52 49
126 1 49 52 53
127 1 52 53 56
128 1 52 53 55
129 1 55 53 56
130 1 59 54 100
131 1 55 54 59
132 1 55 54 100
133 1 50 55 53
134 1 53 55 54
135 1 50 55 54
136 1 10 56 57
137 1 10 56 53
138 1 53 56 57
139 1 56 57 60
140 1 56 57 59
141 1 59 57 60
142 1 59 58 63
143 1 59 58 104
144 1 63 58 104
145 1 54 59 57
146 1 54 59 58
147 1 57 59 58
148 1 14 60 57
149 1 14 60 61
150 1 57 60 61
151 1 63 61 64
152 1 60 61 64
153 1 60 61 63
154 1 67 62 108
155 1 63 62 67
156 1 63 62 108
157 1 61 63 62
158 1 58 63 61
159 1 58 63 62
160 1 18 64 65
161 1 18 64 61
162 1 61 64 65
163 1 64 65 68
164 1 64 65 67
165 1 67 65 68
166 1 71 66 112
167 1 67 66 71
168 1 67 66 112
169 1 62 67 65
170 1 65 67 66
171 1 62 67 66
172 1 22 68 69
173 1 22 68 65
174 1 65 68 69
175 1 68 69 72
176 1 68 69 71
177 1 71 69 72
178 1 71 70 75
179 1 71 70 116
180 1 75 70 116
181 1 66 71 69
182 1 66 71 70
183 1 69 71 70
184 1 26 72 69
185 1 26 72 73
186 1 69 72 73
187 1 75 73 76
188 1 72 73 76
189 1 72 73 75
190 1 79 74 120
191 1 75 74 79
192 1 75 74 120
193 1 73 75 74
194 1 70 75 73
195 1 70 75 74
196 1 30 76 77
197 1 30 76 73
198 1 73 76 77
199 1 76 77 80
200 1 76 77 79
201 1 79 77 80
202 1 83 78 124
203 1 79 78 83
204 1 79 78 124
205 1 74 79 77
206 1 77 79 78
207 1 74 79 78
208 1 34 80 81
209 1 34 80 77
210 1 77 80 81
211 1 80 81 84
212 1 80 81 83
213 1 83 81 84
214 1 83 82 87
215 1 83 82 128
216 1 87 82 128
217 1 78 83 81
218 1 78 83 82
219 1 81 83 82
220 1 38 84 81
221 1 38 84 85
222 1 81 84 85
223 1 87 85 88
224 1 84 85 88
225 1 84 85 87
226 1 132 86 136
227 1 87 86 136
228 1 87 86 132
229 1 85 87 86
230 1 82 87 85
231 1 82 87 86
232 1 42 88 135
233 1 42 88 85
234 1 85 88 135
235 1 91 89 92
236 1 91 90 95
237 1 89 91 90
238 1 46 92 89
239 1 46 92 93
240 1 89 92 93
241 1 95 93 96
242 1 92 93 96
243 1 92 93 95
244 1 95 94 99
245 1 93 95 94
246 1 90 95 93
247 1 90 95 94
248 1 50 96 97
249 1 50 96 93
250 1 93 96 97
251 1 96 97 100
252 1 99 97 100
253 1 96 97 99
254 1 99 98 103
255 1 94 99 97
256 1 97 99 98
257 1 94 99 98
258 1 54 100 101
259 1 54 100 97
260 1 97 100 101
261 1 100 101 104
262 1 100 101 103
263 1 103 101 104
264 1 103 102 107
265 1 101 103 102
266 1 98 103 101
267 1 98 103 102
268 1 58 104 101
269 1 58 104 105
270 1 101 104 105
271 1 107 105 108
272 1 104 105 108
273 1 104 105 107
274 1 107 106 111
275 1 105 107 106
276 1 102 107 105
277 1 102 107 106
278 1 62 108 109
279 1 62 108 105
280 1 105 108 109
281 1 108 109 112
282 1 111 109 112
283 1 108 109 111
284 1 111 110 115
285 1 106 111 109
286 1 109 111 110
287 1 106 111 110
288 1 66 112 113
289 1 66 112 109
290 1 109 112 113
291 1 112 113 116
292 1 112 113 115
293 1 115 113 116
294 1 115 114 119
295 1 113 115 114
296 1 110 115 113
297 1 110 115 114
298 1 70 116 113
299 1 70 116 117
300 1 113 116 117
301 1 119 117 120
302 1 116 117 120
303 1 116 117 119
304 1 119 118 123
305 1 117 119 118
306 1 114 119 117
307 1 114 119 118
308 1 74 120 121
309 1 74 120 117
310 1 117 120 121
311 1 120 121 124
312 1 123 121 124
313 1 120 121 123
314 1 123 122 127
315 1 118 123 121
316 1 121 123 122
317 1 118 123 122
318 1 78 124 125
319 1 78 124 121
320 1 121 124 125
321 1 124 125 128
322 1 124 125 127
323 1 127 125 128
324 1 127 126 131
325 1 125 127 126
326 1 122 127 125
327 1 122 127 126
328 1 82 128 125
329 1 82 128 129
330 1 125 128 129
331 1 131 129 132
332 1 128 129 132
333 1 128 129 131
334 1 131 130 138
335 1 129 131 130
336 1 126 131 129
337 1 126 131 130
338 1 86 132 137
339 1 86 132 129
340 1 129 132 137
341 1 44 133 134
342 1 42 134 133
343 1 88 135 136
344 1 86 136 135
345 1 132 137 138
346 1 130 138 137

