LAMMPS data file via write_data, version 29 Oct 2020, timestep = 300000

2016 atoms
1 atom types

-0.32572315077078073 21.58972315076975 xlo xhi
-0.32572315077078073 21.58972315076975 ylo yhi
-0.7600206851321296 50.3760206851342 zlo zhi

Masses

1 58.933

Atoms # atomic

1 1 -0.23436729450243837 -0.27977391620715836 -0.748093411242197 0 0 0
5 1 3.3691310201755535 -0.2761915599993196 -0.7274415960778734 0 0 0
8 1 3.16360208469557 1.5725589326769829 1.0910029700631512 0 0 0
27 1 1.5184177373990384 3.450049816270784 1.108927341706623 0 0 0
146 1 1.5962168872481448 1.3175721908668614 3.005743126235933 0 0 0
173 1 3.3888330438224634 3.3341756800256537 2.9570826008123996 0 0 0
4 1 -0.19421404607897863 1.552929499431853 1.0858585946454453 0 0 0
169 1 -0.32417939232756743 3.274797436668238 2.8682502883609726 0 0 0
12 1 6.886892873000476 1.5019118959373379 1.1569268654377727 0 0 0
31 1 5.216724401634486 3.246358892117245 1.0790638354311828 0 0 0
150 1 4.996021944931323 1.4403831700147622 2.9711059693828865 0 0 0
153 1 6.839454082856491 -0.32562269617498174 2.9445521370201857 0 0 0
177 1 7.00820201494119 3.3422655235322907 3.004320979543219 0 0 0
33 1 6.98807058781 3.3062918088383038 -0.6862917005253583 0 0 0
10 1 8.66421906139879 1.3999133286349754 -0.6711188742442075 0 0 0
14 1 12.514766107014339 1.465648959088472 -0.7588791979136692 0 0 0
16 1 10.57235306711803 1.3376243382662416 1.1733527643983916 0 0 0
35 1 8.741423092087539 3.2489830625035565 1.2131580328298783 0 0 0
39 1 12.34309657835876 3.2466793756550807 1.169557331764326 0 0 0
154 1 8.80005895490139 1.4742245891620143 2.8662714920473316 0 0 0
158 1 12.569602984004305 1.550612390347543 2.941458888027482 0 0 0
181 1 10.644158801316317 3.3216670976982057 2.9707277710104467 0 0 0
15 1 12.545838021965459 -0.30353509040462445 1.068247738505253 0 0 0
157 1 10.589799967583305 -0.2181049192113067 3.0034127521267497 0 0 0
37 1 10.477391481894378 3.2460550246848627 -0.6878320208970509 0 0 0
13 1 10.603527763355595 -0.22113281365688173 -0.665503792202717 0 0 0
17 1 14.374673030269324 -0.26708320912181566 -0.7175485471636074 0 0 0
20 1 14.326712745521464 1.5920246196509673 1.081506546209972 0 0 0
43 1 16.006957059729807 3.197743078048311 1.034848640624995 0 0 0
162 1 16.297629264008634 1.401846426300852 2.9163122001200508 0 0 0
185 1 14.336681937756705 3.2323872238409392 2.96392637570793 0 0 0
18 1 16.18522326619124 1.4446415044081675 -0.7463705560118141 0 0 0
25 1 21.524830480375506 3.4148425285494546 -0.6470167853128869 -1 0 0
21 1 17.96523761070973 -0.3234606970842809 -0.6988032299704304 0 0 0
24 1 17.901701261162 1.5090897311468214 1.0655666666004449 0 0 0
47 1 19.690189909216357 3.416942117832154 1.1528162905971908 0 0 0
166 1 19.751958814306636 1.4819735749905256 2.948328683901111 0 0 0
189 1 18.05114235607178 3.3294276771458033 2.900656970841315 0 0 0
28 1 -0.315505901466027 5.223473356890173 1.1291319354805467 0 0 0
32 1 3.425366724797925 5.128956036022339 0.977702654788895 0 0 0
51 1 1.5972740109429486 6.901141841100058 0.895363380912809 0 0 0
170 1 1.510656781915618 5.225720760948499 2.8747130960578375 0 0 0
193 1 -0.25271809214575874 7.06681388324799 2.85577831780559 0 0 0
197 1 3.432193267693278 7.110318576095688 3.0693642707872386 0 0 0
36 1 6.800108701847531 5.2325898533963695 1.1141145397330747 0 0 0
55 1 5.098289773751927 6.939561056145845 1.0213658290838457 0 0 0
174 1 4.9711798772871605 5.203002284291611 2.950341273371345 0 0 0
201 1 6.874510451709945 6.963003213326525 2.9888042573985834 0 0 0
34 1 8.645700752708967 5.052792748402992 -0.6086912250104992 0 0 0
40 1 10.58947096376631 5.121957414108272 1.2061858313406926 0 0 0
59 1 8.653409184463616 6.931714646959391 1.0486405040691333 0 0 0
61 1 10.561417740909484 6.957372554594327 -0.590732991718389 0 0 0
63 1 12.460515090342632 7.0418681174754205 1.1793667316478427 0 0 0
178 1 8.745694982313891 5.206646137294552 3.018329699845669 0 0 0
182 1 12.464379621937438 5.15013497521504 2.956800777783485 0 0 0
205 1 10.510871172857659 6.865676978611021 2.868720536627176 0 0 0
38 1 12.330081257335602 5.100366155122689 -0.53806977847931 0 0 0
44 1 14.19608953060441 5.074558653645944 1.0909971215173606 0 0 0
65 1 14.160446768579053 6.978902932946642 -0.5690622903615028 0 0 0
67 1 16.0765626416477 6.95543031738685 1.0889743551219901 0 0 0
186 1 16.04096791673982 5.13579737054196 2.842218302791606 0 0 0
209 1 14.274355748974747 6.925190997804447 2.882107980857281 0 0 0
42 1 16.101637728264425 5.135914439746574 -0.6873888427689699 0 0 0
48 1 17.9397869780342 5.216538648882663 1.1633016367808797 0 0 0
71 1 19.685557502844997 6.909036851563062 1.0916478117890454 0 0 0
190 1 19.916635744945374 5.249460375662457 2.9580713380993 0 0 0
213 1 17.972323480669612 7.012678660283281 2.9335172597156185 0 0 0
46 1 19.681866427231302 5.184122312959717 -0.6606871505653349 0 0 0
56 1 3.275685298676233 8.65798604819232 1.0899095140639765 0 0 0
75 1 1.5034466498206136 10.573819975660255 1.12722325713539 0 0 0
77 1 3.3334301864767797 10.69417382445332 -0.7570371459934496 0 0 0
80 1 3.3596246226964204 12.471088266727373 0.8620564522148422 0 0 0
194 1 1.5111121550577051 8.779726331755095 2.9244327132022896 0 0 0
218 1 1.4127701025643764 12.567508215711634 2.895151705166285 0 0 0
221 1 3.331218737944857 10.702141903289293 2.9028058965768904 0 0 0
52 1 -0.19669060143831163 8.724341733881477 1.0117358684788962 0 0 0
76 1 -0.2447861382024118 12.405097395621569 0.9593614697144124 0 0 0
217 1 -0.24449179247653852 10.553451263458967 2.8402365443080897 0 0 0
60 1 6.801518851155779 8.844381536160288 1.058494661572499 0 0 0
78 1 5.219841915787025 12.400278084183446 -0.7573806024777572 0 0 0
79 1 5.103361027926145 10.528999665854217 1.025156061187181 0 0 0
84 1 6.952194628925061 12.5195547768144 1.0288824660859108 0 0 0
198 1 5.153440903105752 8.72103377611917 2.825818984048017 0 0 0
222 1 5.0410659861243525 12.463976031534411 2.8125022941461206 0 0 0
225 1 6.803733536215213 10.685928816906648 2.8477095233357943 0 0 0
62 1 12.397594804518082 8.76315515411033 -0.5601365497912687 0 0 0
64 1 10.618418406474495 8.8671968344268 1.1532873109644406 0 0 0
82 1 8.681439001751045 12.464372361830547 -0.740247547469433 0 0 0
83 1 8.799279454931526 10.66608770959212 1.0919648136027125 0 0 0
85 1 10.582165949799963 10.577012746074363 -0.6487785475906921 0 0 0
87 1 12.570178335830224 10.75047171766679 1.1033676461203652 0 0 0
88 1 10.637816259481394 12.550901077571563 0.9453703229948058 0 0 0
202 1 8.657381889214433 8.896997019040962 2.7349252051989543 0 0 0
206 1 12.527135193058866 8.927931598200141 2.8876194491184393 0 0 0
226 1 8.875819185308515 12.588508028646826 2.8131197064758284 0 0 0
229 1 10.766081098524626 10.674713393529654 2.8322928318635667 0 0 0
230 1 12.605368286123737 12.419590601720683 2.8470380413454532 0 0 0
86 1 12.417229896137433 12.417846814452647 -0.7253416295190497 0 0 0
68 1 14.3197637390894 8.798989358208482 1.1619022206938083 0 0 0
91 1 16.13128480765124 10.585357255976112 1.2075658711413677 0 0 0
92 1 14.387060290798335 12.510823112141424 1.0003259558690067 0 0 0
210 1 16.245821649969443 8.828859750007538 2.9788702122936486 0 0 0
233 1 14.330088955457823 10.552068552221272 2.9186246918118828 0 0 0
234 1 16.091239813748217 12.415923499613275 2.8669812260078236 0 0 0
66 1 15.955882018514451 8.77329127652425 -0.7094566318695188 0 0 0
70 1 19.661983150632146 8.789827988989906 -0.5838835115934625 0 0 0
72 1 17.86547010369978 8.787609334576565 1.1308964536084425 0 0 0
95 1 19.84019863060928 10.645581600403458 0.9658999998513285 0 0 0
96 1 17.858310833713407 12.370017486441853 1.0160946568190234 0 0 0
214 1 19.78559910554494 8.723488527439939 2.8133707313453815 0 0 0
237 1 18.229971582471954 10.669710113799152 2.8700065297844692 0 0 0
238 1 19.870764639873848 12.41389369281892 2.843200565169353 0 0 0
99 1 1.552993027097322 14.311643238770849 1.0533214896341543 0 0 0
104 1 3.243067217923737 15.98128153844441 0.9899571891073029 0 0 0
242 1 1.3751826433063776 15.878957940259287 2.8873745024361965 0 0 0
245 1 3.31458539248539 14.281628700911916 2.73460344645769 0 0 0
103 1 5.115298080024765 14.25398887297081 1.0681955763078548 0 0 0
108 1 7.035817270262132 16.11319736352943 1.0350862912541268 0 0 0
246 1 5.239029033044245 16.06863873998297 2.8523589426001013 0 0 0
249 1 6.9699568120691495 14.300684893607505 2.8283927610351087 0 0 0
107 1 8.73581025503436 14.31217329390444 0.9652225151831502 0 0 0
111 1 12.464296955195575 14.266453811863908 0.9753930896080396 0 0 0
112 1 10.578960641910186 16.177613241886384 0.9478437679039455 0 0 0
250 1 8.754381339711385 15.99672181138897 3.008243886858971 0 0 0
253 1 10.741061101317552 14.243502080942694 2.876002514584899 0 0 0
254 1 12.381599170953178 16.112848436501647 2.8767019762813644 0 0 0
113 1 14.296927769705043 14.240216451277801 -0.7324399006002419 0 0 0
115 1 16.160683506061478 14.30775492101442 1.009931509008272 0 0 0
116 1 14.200393334316795 16.064457789995362 1.0526990548689774 0 0 0
257 1 14.327203096651983 14.11179181592703 2.9102501438790993 0 0 0
258 1 16.08474057292905 16.073012889823307 2.983834738533692 0 0 0
97 1 21.461980262521287 14.308124779648848 -0.7124298257503399 -1 0 0
100 1 21.572997987212673 16.003265288005753 0.9703972716896359 -1 0 0
241 1 21.497900255571782 14.36942060648708 2.9688245303899534 -1 0 0
119 1 19.81565278794281 14.190022208720102 1.0992522306166868 0 0 0
120 1 17.90996159818262 16.20547569521918 1.0893249881757896 0 0 0
261 1 17.95647834797587 14.185699173489708 2.851577622735894 0 0 0
262 1 19.795175908489515 16.18485005193087 2.8177663794369323 0 0 0
3 1 1.637452009543039 21.580396826270995 1.1529298633167113 0 -1 0
149 1 3.3825300012422628 21.421430778605682 2.9091528786350755 0 -1 0
122 1 1.583295238774513 19.796393099469167 -0.753961030201916 0 0 0
123 1 1.4445786220764558 17.81495923610272 1.2275275487112913 0 0 0
124 1 -0.2553706160219797 19.651363259012257 0.9534548767822331 0 0 0
128 1 3.2996359320512556 19.534807222014894 1.1722615379516728 0 0 0
266 1 1.5230797114143444 19.65139501433824 2.854036463024294 0 0 0
269 1 3.2890290908011814 17.70569820374138 3.0652243462708877 0 0 0
265 1 -0.25082045132760744 17.83767124926472 3.0130201704457127 0 0 0
7 1 5.094093551489981 21.579995989053884 1.1380558261190934 0 -1 0
9 1 6.858224553477935 21.50269388725523 -0.6509829978318029 0 -1 0
126 1 5.122457596171744 19.699665038519022 -0.7198320867949068 0 0 0
127 1 4.956768685676209 17.78291701333365 1.1891981563343028 0 0 0
129 1 6.9120402169708886 18.05442671036815 -0.6919171129166658 0 0 0
132 1 6.749601212865211 19.755214409935384 1.1715664066531695 0 0 0
270 1 5.043821454791478 19.61148570407908 3.0661230970369355 0 0 0
273 1 6.998555910178493 17.8581798949113 2.933252465226445 0 0 0
11 1 8.673819583771056 21.58412166091799 1.2317233721719665 0 -1 0
131 1 8.757753814018159 17.89136033727972 1.2354606704004725 0 0 0
134 1 12.337424358153365 19.902827857673813 -0.703795871674114 0 0 0
135 1 12.426972790983069 17.996269491223305 0.9116711277111587 0 0 0
136 1 10.568052164658816 19.866863763279568 1.204740040275964 0 0 0
274 1 8.737510008124287 19.81831664706195 2.939507107835259 0 0 0
277 1 10.514906113277192 17.927630251163986 2.887905553803568 0 0 0
278 1 12.51687165359781 19.78383842161535 2.781710573285861 0 0 0
133 1 10.630919790859613 18.068574527950137 -0.661093793593682 0 0 0
130 1 8.931559865223434 19.74190399536986 -0.668230765108801 0 0 0
19 1 16.268160686962066 21.528662958009274 1.0972120685521731 0 -1 0
161 1 14.168087995222702 21.528999599874915 2.76386377198581 0 -1 0
139 1 16.113031198173545 17.85617661970948 0.9821411419052424 0 0 0
140 1 14.42578797346803 19.723757653686178 0.9927483463686626 0 0 0
281 1 14.352301139517605 17.873115361530953 2.807354422432846 0 0 0
282 1 16.212534395200812 19.688347521669687 2.8152723411942304 0 0 0
165 1 18.127852937978 21.431370835470023 2.7066461198894727 0 -1 0
145 1 21.589317361093478 21.49466539175688 2.7907313616324916 -1 -1 0
23 1 19.886064001326627 21.586242115111013 0.9722340535984744 0 -1 0
143 1 19.811366558821753 17.916231915239255 0.988229917836738 0 0 0
144 1 17.929114132233266 19.49728234122312 1.0190174925061002 0 0 0
285 1 17.997068006809485 17.84425775016167 2.841164565808008 0 0 0
286 1 19.900838864114995 19.61686888948877 2.7616916416767627 0 0 0
148 1 -0.2960152396111478 1.3446055451018506 4.534912744195586 0 0 0
152 1 3.2853612334606908 1.2402128490530764 4.795328658199646 0 0 0
171 1 1.614179383714801 3.1900326704187854 4.712699301027113 0 0 0
290 1 1.5183281609464758 1.3914001553057003 6.568503757787372 0 0 0
317 1 3.3433224594000612 3.276987894536167 6.477861968032179 0 0 0
156 1 7.120154595701306 1.537381772740473 4.704907955705641 0 0 0
175 1 5.2033027894563055 3.3245050056518997 4.761666635995548 0 0 0
294 1 5.233408551345326 1.5220195694633858 6.553591164021597 0 0 0
321 1 6.913708558613132 3.28144641351394 6.768383310174183 0 0 0
160 1 10.777823658927659 1.4907702249946009 4.8111509030916775 0 0 0
179 1 8.804786789429945 3.331406632868811 4.812296235999613 0 0 0
183 1 12.63554479642483 3.2883615859854944 4.790451555024195 0 0 0
298 1 8.869377743565233 1.3215457317771298 6.471753892240535 0 0 0
302 1 12.466783027808836 1.41799956315021 6.578370785947082 0 0 0
325 1 10.760906384121379 3.243771898933383 6.428461699072522 0 0 0
155 1 8.683802329220956 -0.30459349847807843 4.651149691742721 0 0 0
164 1 14.434817542061863 1.4696965910618218 4.795492222209028 0 0 0
187 1 16.127250404933957 3.363036583578946 4.773387698514442 0 0 0
306 1 16.09421362358287 1.4774417133198212 6.54914659718441 0 0 0
329 1 14.369622602877513 3.3256026372256904 6.575387749577658 0 0 0
313 1 21.540974652678745 3.341204975458997 6.6651203557222765 -1 0 0
168 1 18.129790157208294 1.5281049341543214 4.684670440570849 0 0 0
191 1 19.860856390978412 3.403388355849681 4.833473304825337 0 0 0
310 1 19.938334625001428 1.4563030648470785 6.512316325502873 0 0 0
333 1 18.030564740491286 3.204635485832533 6.700702690787737 0 0 0
309 1 18.072345431679185 -0.24224774484382192 6.403202003582646 0 0 0
172 1 -0.21125002255508954 5.1304629505203 4.8177525352268225 0 0 0
176 1 3.3217736669988103 5.307718234087154 4.848632277817289 0 0 0
195 1 1.4516604485428841 7.2462378285489 4.8596229615265285 0 0 0
314 1 1.4523331705372424 5.125433903010794 6.557347031782655 0 0 0
337 1 -0.31842567415064743 7.0871159315879195 6.583372137133097 0 0 0
341 1 3.2733591491267884 6.984064456310304 6.596504428594875 0 0 0
180 1 6.974583367383068 5.124412299724282 4.859758856420578 0 0 0
199 1 5.126801469320916 6.99682001803071 4.835700931765995 0 0 0
318 1 5.250783378184877 5.216545627593071 6.593061772909551 0 0 0
345 1 7.0614416754775435 7.1259023874827445 6.519264357501473 0 0 0
184 1 10.686099268800714 5.2188007675963455 4.7330458906685084 0 0 0
203 1 8.863564550396493 7.0269384644603825 4.751111117529072 0 0 0
207 1 12.497673250378178 6.912879336631856 4.6340939975953095 0 0 0
322 1 8.87886956039569 5.263337917634834 6.516052171206611 0 0 0
326 1 12.568331423027328 5.153285192959147 6.4208702163575095 0 0 0
349 1 10.60710282097625 6.844248380281229 6.503249514887541 0 0 0
188 1 14.445546621696526 5.078836526818976 4.74454129551175 0 0 0
211 1 16.038858366712734 6.898242779276596 4.653162676912505 0 0 0
330 1 16.263754338264707 5.2343578741603825 6.600523688624438 0 0 0
353 1 14.211706094069413 7.042245769037888 6.512876184799664 0 0 0
192 1 18.014286050640013 5.138992504714864 4.750690685735985 0 0 0
215 1 19.81783032196722 7.166366068438841 4.721222085210634 0 0 0
334 1 19.708943164320047 5.183931677620561 6.638530416515997 0 0 0
357 1 18.102282352252377 6.978910459794215 6.550383960974999 0 0 0
200 1 3.2538840672839675 8.899745136576435 4.762643672589031 0 0 0
219 1 1.4013495591703675 10.770327757583946 4.709139961337333 0 0 0
224 1 3.421635358997194 12.598827036238198 4.653900546886406 0 0 0
338 1 1.583125546434079 8.866065098811507 6.703547403930733 0 0 0
362 1 1.5900736759307232 12.451741069524719 6.527871525633986 0 0 0
365 1 3.3355296023276626 10.551494707085737 6.546527212012592 0 0 0
361 1 -0.21808054631769164 10.62919304458968 6.738682623136364 0 0 0
204 1 7.057528507623585 8.91298871520729 4.674929478535114 0 0 0
223 1 5.149136089796718 10.595654033007241 4.604986082449326 0 0 0
228 1 6.896155898254803 12.419856754374297 4.59379062659124 0 0 0
342 1 5.241881448401902 8.843249243939935 6.46735165659662 0 0 0
366 1 5.029937427052692 12.497563778543457 6.485169794775855 0 0 0
369 1 7.080013834997569 10.689355484109651 6.400966503259506 0 0 0
208 1 10.717987198838026 8.68822844433983 4.608482392807621 0 0 0
227 1 8.841323532064587 10.538726406062697 4.604819321543136 0 0 0
231 1 12.45805424398929 10.504053670651286 4.749304297208688 0 0 0
232 1 10.880353634430637 12.488370127649349 4.698595620716278 0 0 0
346 1 8.874310065495365 8.926951782716118 6.374652106182726 0 0 0
350 1 12.532030280483735 8.61711713615426 6.4608552887165 0 0 0
370 1 8.851240611380636 12.407094564156752 6.4643316652989355 0 0 0
373 1 10.658666106016751 10.665660318336316 6.36631558226478 0 0 0
374 1 12.540637643050033 12.342694518732069 6.662979695491251 0 0 0
212 1 14.324812972845445 8.861108544644555 4.733452326412702 0 0 0
235 1 16.215438175792436 10.569512938719654 4.793562045940402 0 0 0
236 1 14.298431832327541 12.371521428813152 4.82014958852364 0 0 0
354 1 16.229892955603564 8.636415801743512 6.5234607950305215 0 0 0
377 1 14.335997548040504 10.71935997917704 6.562923435228133 0 0 0
378 1 16.26760926778385 12.455948395626775 6.5883498192779895 0 0 0
196 1 21.553440774648088 8.967896826048163 4.892747602391527 -1 0 0
220 1 21.483039652753327 12.45163174287748 4.688395722454299 -1 0 0
216 1 18.037384263639918 8.876154978344001 4.693270473039735 0 0 0
239 1 19.842124348293307 10.733593316669285 4.9232965187180815 0 0 0
240 1 17.95993587338414 12.42931655451948 4.682303427527199 0 0 0
358 1 19.6643442621469 8.82175093406233 6.786190350728812 0 0 0
381 1 17.901488867851338 10.553971412768199 6.746109981271096 0 0 0
382 1 19.782330533486377 12.412018562168717 6.748194445311249 0 0 0
243 1 1.3950037065702372 14.222264779970436 4.824979118924595 0 0 0
248 1 3.0884999779179503 15.981932512030344 4.843906038504511 0 0 0
386 1 1.4579897495180467 16.018627703149928 6.745677571421549 0 0 0
389 1 3.2239637543144912 14.31163987664271 6.846722666210177 0 0 0
247 1 4.943588696899212 14.342177989891573 4.736544439091233 0 0 0
252 1 6.905391229651614 15.96571707484101 4.792727440230837 0 0 0
390 1 5.256059523791908 15.991727545836962 6.570732357261564 0 0 0
393 1 7.104819691478519 14.149487787854255 6.460059386546557 0 0 0
251 1 8.933394960893954 14.179624601779999 4.7962175758150805 0 0 0
255 1 12.567670056745726 14.209243051710038 4.663859008196452 0 0 0
256 1 10.648107760960231 16.204815456426257 4.71083632922212 0 0 0
394 1 8.950060216611703 16.045918205818044 6.632499427140312 0 0 0
397 1 10.80167156473161 14.152004921211988 6.474763024404427 0 0 0
398 1 12.4579969320356 16.097839079118213 6.492738316327414 0 0 0
259 1 16.248396501200236 14.266362649219118 4.742609244256424 0 0 0
260 1 14.395116378275874 16.151740959779048 4.7621324213094445 0 0 0
401 1 14.21731859219598 14.358205897130002 6.513293858977021 0 0 0
402 1 16.241446503138874 16.11296445548676 6.4158991358940405 0 0 0
244 1 21.57328011566081 16.06947394225512 4.836673973218931 -1 0 0
385 1 21.585412620042703 14.194643517751656 6.619379014506042 -1 0 0
263 1 19.795152617051837 14.208419075227832 4.650135705287836 0 0 0
264 1 17.926841324169548 16.048730371786263 4.660013690803879 0 0 0
405 1 18.05889811645448 14.28912993836999 6.505462894859098 0 0 0
406 1 19.743355992883096 16.12963660024107 6.477330125463829 0 0 0
147 1 1.3977476266160809 21.25201067239987 4.866631664321214 0 -1 0
293 1 3.472260804202879 21.51643382135911 6.767378154072602 0 -1 0
267 1 1.537826619439145 17.89494701188199 4.810620911689838 0 0 0
272 1 3.2530014184649687 19.815169767542482 4.882296425753353 0 0 0
410 1 1.6267929682539148 19.567260879887417 6.67038708892755 0 0 0
413 1 3.36912750768388 17.91355944476796 6.561083183829952 0 0 0
289 1 -0.27583660027165025 21.504352776892627 6.587889771898702 0 -1 0
151 1 5.164526173286571 21.407505548667654 4.880307377908955 0 -1 0
297 1 7.019420764094469 21.546660185438814 6.526563115202078 0 -1 0
271 1 5.11812345334793 17.94919412510764 4.819042401840708 0 0 0
276 1 6.977466395064751 19.70401455394756 4.75952219378531 0 0 0
414 1 5.259983785071114 19.671693625146784 6.755552345102009 0 0 0
417 1 7.0094354785989035 17.79510896617603 6.542703162729168 0 0 0
159 1 12.544596961130352 21.480804653151342 4.744779868449138 0 -1 0
301 1 10.754100539284744 21.433560289745593 6.388516091928543 0 -1 0
275 1 8.693313743262804 17.773248753530883 4.693350162916218 0 0 0
279 1 12.455928948566719 17.961345501473232 4.71283626739871 0 0 0
280 1 10.593074310689294 19.680691299234685 4.707748799709436 0 0 0
418 1 8.82256343802332 19.847332601773868 6.418299082437429 0 0 0
421 1 10.644818773166298 17.859336107282836 6.570459445223636 0 0 0
422 1 12.435317833205296 19.721518368098742 6.345066249269408 0 0 0
163 1 16.177889591632812 21.537296163286587 4.68282234643831 0 -1 0
305 1 14.293879645410057 21.50650152508258 6.460662036708999 0 -1 0
283 1 16.255961877178077 17.972007650037177 4.588018078757416 0 0 0
284 1 14.371808821804878 19.64896891783196 4.634224914785116 0 0 0
425 1 14.318457356854323 17.951033541486357 6.483820448247592 0 0 0
426 1 16.23952627291319 19.78351250177572 6.449242096303261 0 0 0
167 1 19.777251279699755 21.504449010137368 4.565174706105151 0 -1 0
268 1 21.483189422157302 19.71563075494783 4.707261116805881 -1 0 0
409 1 21.55681232280028 17.861401069328352 6.544379346028711 -1 0 0
287 1 19.776728590976816 17.935785427415933 4.713247607277878 0 0 0
288 1 18.03083909051561 19.819991412780738 4.721693232860057 0 0 0
429 1 18.00513004886409 18.000298361711017 6.581817330721744 0 0 0
430 1 19.877335695654644 19.79188313641979 6.583891835338877 0 0 0
296 1 3.425065530255968 1.4260719912793582 8.369493215315778 0 0 0
315 1 1.4615594183883478 3.2904260052362013 8.26055738145901 0 0 0
434 1 1.5563617432281258 1.3605961770685806 10.087519872238357 0 0 0
445 1 -0.15209055926500986 3.243151873566844 10.281484835251542 0 0 0
447 1 3.2234289425097953 3.2598885756977016 10.194074544659829 0 0 0
508 1 3.2904614925777556 1.3804915944281693 12.01773307775265 0 0 0
435 1 3.371485995988885 -0.31316762087551225 10.1800476824092 0 0 0
292 1 -0.20285351818698555 1.4054116115645712 8.440426650075644 0 0 0
295 1 5.248375427628483 -0.23965333197334115 8.466224906693325 0 0 0
300 1 7.1060904364026 1.444224617392449 8.368607997891349 0 0 0
319 1 5.005259508204988 3.2954461116366875 8.502081691234046 0 0 0
436 1 5.1876730884920175 1.5909888185069483 10.19779964694101 0 0 0
437 1 6.9914476606721685 -0.31535631456348734 10.25224117582936 0 0 0
449 1 7.075415698107746 3.334300560182596 10.13263791728524 0 0 0
510 1 6.9580717352512105 1.4789922237897803 11.993224513223751 0 0 0
519 1 5.155943363626143 3.2936867872708575 11.996583062051474 0 0 0
303 1 12.469022994840216 -0.3177771490793248 8.308229802382229 0 0 0
304 1 10.548613561246192 1.3651745391554249 8.340228613740178 0 0 0
323 1 8.825066162083557 3.3742019258331157 8.15678684274498 0 0 0
327 1 12.613111879902709 3.2893732624858245 8.361214206372107 0 0 0
438 1 8.939123390048888 1.4860274232064559 10.224269769426067 0 0 0
440 1 12.421439224719764 1.4912450311992311 10.104764372918602 0 0 0
451 1 10.599730902733258 3.2092954457660046 10.117006984696754 0 0 0
512 1 10.74823364184123 1.4379234344584517 11.984818261100477 0 0 0
521 1 8.753662620600931 3.1932848865492 12.0197407433843 0 0 0
523 1 12.627153284725676 3.3538597602911513 11.857910928855116 0 0 0
308 1 14.40847454619284 1.4133442249910375 8.402979282104521 0 0 0
331 1 15.992673707619819 3.2969219036423385 8.33470607636174 0 0 0
442 1 16.102191343548053 1.4959851348853814 10.24204990269061 0 0 0
453 1 14.304401501503241 3.3231989225315375 10.176796596724746 0 0 0
513 1 16.244501404001248 -0.26772472701096606 11.943073441138425 0 0 0
514 1 14.181748735668242 1.5120006683755767 11.952794649869094 0 0 0
311 1 19.67866320073112 -0.2772464150911443 8.385527014499651 0 0 0
312 1 17.960877882223322 1.4496182699799658 8.472982780338127 0 0 0
335 1 19.98266082330631 3.293193442881344 8.51953930686644 0 0 0
443 1 18.050701028652945 -0.3196294897580281 10.209193280505414 0 0 0
444 1 19.856941176522202 1.4777333824936725 10.236384149275237 0 0 0
455 1 17.913909697414507 3.216260188606703 10.153406212471724 0 0 0
316 1 -0.2848359194808721 5.172323568096926 8.564483422316819 0 0 0
320 1 3.365467216851951 5.144440952786165 8.467923617725468 0 0 0
339 1 1.52189706782666 6.98392125903255 8.379535859075519 0 0 0
446 1 1.4356356233368255 5.0891384390465895 10.266800026020968 0 0 0
459 1 3.2186516235063456 6.936349383277887 10.123873855295988 0 0 0
520 1 3.3435266705431994 5.203169175149785 11.982199403112919 0 0 0
324 1 6.988168493237587 5.2018895623718295 8.283756638994937 0 0 0
343 1 5.1241774297637575 6.883296558468407 8.331001242534192 0 0 0
448 1 5.2978108040134355 5.164312829774076 10.151222074381396 0 0 0
461 1 7.138835414500276 7.012309102005456 10.14478650392154 0 0 0
522 1 7.112672372819578 5.086677655152015 11.848357869895038 0 0 0
531 1 5.1330449557067555 6.94818708963574 11.883161462219686 0 0 0
328 1 10.755211837110656 5.0798459671591445 8.295506681628222 0 0 0
347 1 8.910532561100302 7.088662068596604 8.30621167460261 0 0 0
351 1 12.467325946128616 6.944648580883972 8.347463363613798 0 0 0
450 1 8.887974631828135 5.214508589626393 10.009453536164385 0 0 0
452 1 12.353012086353655 5.160235690728022 10.193461131725517 0 0 0
463 1 10.649910721151779 7.098852435160037 10.146223627146098 0 0 0
533 1 8.958977601570611 6.862484491851221 11.980217223157052 0 0 0
524 1 10.614089888381464 5.040305420058961 11.893428846102132 0 0 0
332 1 14.3406436567892 5.196664959394251 8.343447374500492 0 0 0
355 1 16.21042431219069 6.9936469415949585 8.382613144665797 0 0 0
454 1 16.022986619852677 5.132872291590826 10.156645263152512 0 0 0
465 1 14.117317464394675 6.888518426383715 10.234874421352371 0 0 0
526 1 14.255516116368254 5.158155079636103 11.924725312013233 0 0 0
537 1 15.975067719388978 6.798532846136991 12.018660893182888 0 0 0
457 1 21.48918252297933 6.895802613093658 10.259235360009644 -1 0 0
336 1 18.031894343818234 5.000240753745979 8.496924847581722 0 0 0
359 1 19.83198918488713 6.891300064772063 8.44197960905373 0 0 0
456 1 19.869983411041943 4.946414185938307 10.21932691275223 0 0 0
467 1 18.118135470134145 6.862846683818729 10.258470595771787 0 0 0
528 1 17.990835305904348 5.0819748692319395 11.931405375060676 0 0 0
344 1 3.485035043725347 8.82665692778433 8.316149092435163 0 0 0
363 1 1.5582020008781274 10.586191208724804 8.459445878348614 0 0 0
364 1 -0.2349157347332099 12.439206029251151 8.457879032335288 0 0 0
368 1 3.4882461203336836 12.44633402909513 8.487722190959278 0 0 0
458 1 1.5283955563940763 8.713956717207811 10.274628624178847 0 0 0
469 1 -0.22846646269107435 10.686684931356783 10.305035839195174 0 0 0
470 1 1.6198749488406374 12.402943072126655 10.293035830647431 0 0 0
471 1 3.357396803823159 10.49465765133151 10.167819994567928 0 0 0
532 1 3.3273643126583874 8.77123167496175 11.97788214840644 0 0 0
530 1 -0.24262752094956686 8.725128395775355 12.01476727710214 0 0 0
542 1 -0.20462698481861796 12.5022961686449 12.004410926862993 0 0 0
348 1 7.133819803405788 8.853566730459043 8.300879175509744 0 0 0
367 1 5.234688928291664 10.642472033269497 8.265556631055249 0 0 0
372 1 6.989302128261367 12.411754005358723 8.275924743913668 0 0 0
460 1 5.29844261058464 8.72581651755713 10.222876246725063 0 0 0
472 1 5.2870327936592 12.388616723435971 10.194574990934486 0 0 0
473 1 7.171938113682242 10.556274090380134 10.31151190182478 0 0 0
534 1 7.159697684502006 8.721911432070065 11.978044752285992 0 0 0
352 1 10.716945335799872 8.921327635197303 8.282597690973052 0 0 0
371 1 8.963109590006333 10.712280275875925 8.38555886611894 0 0 0
375 1 12.462723238843633 10.628692307272221 8.371170264075195 0 0 0
376 1 10.735234605928158 12.378357767073558 8.356785026225655 0 0 0
462 1 9.054927589467674 8.867595222602397 10.107330779269992 0 0 0
464 1 12.400241858739202 8.827850761929495 10.219983611116184 0 0 0
474 1 8.811044528197922 12.45485917378512 10.17296271686828 0 0 0
475 1 10.69801797592041 10.656321842895409 10.301962140114558 0 0 0
476 1 12.563418423078053 12.631232861806119 10.264123540574658 0 0 0
547 1 12.51977568849374 10.610490878626665 11.954598845074454 0 0 0
356 1 14.369902380248842 8.78267795517397 8.417654291630683 0 0 0
379 1 16.05535608919323 10.501520593752653 8.429409586186082 0 0 0
380 1 14.247722045147063 12.561029903991555 8.312352609391077 0 0 0
466 1 16.117616775237398 8.722146009871052 10.272249337857353 0 0 0
477 1 14.195305796841708 10.646633786667175 10.185679254479243 0 0 0
478 1 15.986964506521744 12.482273975293774 10.264881823001755 0 0 0
549 1 15.947241771574998 10.537099181247196 12.007616760349093 0 0 0
550 1 14.316921119886251 12.442789332333945 11.938677883014684 0 0 0
340 1 21.51265174503778 8.735591094157662 8.537364132909325 -1 0 0
360 1 17.968970436497358 8.74735788943279 8.44659570734474 0 0 0
383 1 19.865133393177523 10.672657237857749 8.461756559112356 0 0 0
384 1 17.940158835852515 12.537634645452805 8.414862038048238 0 0 0
468 1 19.746470550216415 8.823137135237877 10.289650841266289 0 0 0
479 1 17.897603915322833 10.811468599215278 10.188350980741122 0 0 0
480 1 19.79837914005888 12.570752407208998 10.181765648045415 0 0 0
540 1 17.9656194308284 8.788347341381545 11.849631887056537 0 0 0
551 1 19.868064286070396 10.689658898068794 11.903544692692583 0 0 0
387 1 1.4578002945302544 14.21794260812979 8.441982899053981 0 0 0
392 1 3.369888535469988 16.071325135023482 8.378576597939835 0 0 0
482 1 1.5931934141857387 15.89093178084866 10.235654619870537 0 0 0