LAMMPS data file via write_data, version 29 Oct 2020, timestep = 300000

2016 atoms
1 atom types

-0.4593296413934844 21.723329641395136 xlo xhi
-0.4593296413934844 21.723329641395136 ylo yhi
-1.071769163251325 50.68776916324599 zlo zhi

Masses

1 58.933

Atoms # atomic

303 1 1.4441713409283112 21.03601829166682 3.1258518751761892 0 -1 0
1608 1 13.220714550568045 0.64920014896702 -0.7664835809189545 3 0 0
1290 1 2.060788701975441 0.9054745304724221 1.8909622209175652 3 3 1
41 1 -0.287563845369991 3.213519580780583 0.40945709000054875 0 -1 0
548 1 3.7568783406585498 1.6626099183029441 -0.062042827859865035 1 0 0
467 1 21.312255458203722 8.843094946925445 -0.8473309391624736 0 0 0
1349 1 2.7786870958186483 21.199818145121974 0.9700076166817841 -5 1 0
1375 1 -0.4216592774012966 1.3018076686999926 1.7955130216994162 3 4 1
1348 1 8.507926854747893 0.41137185505342966 2.338491101764127 1 1 1
1773 1 6.989643487433348 2.7878838695146975 2.508538144359412 0 0 1
1724 1 4.5354536930920375 1.1920690242024203 2.6824956825298734 3 5 1
1471 1 6.511030489703877 -0.2846415700290121 2.7813855830330687 2 4 1
1457 1 4.71664638811147 3.509954409620536 0.9244274907777923 -2 -1 0
395 1 6.942469045039549 3.5100151478845825 -0.013947336425211398 1 2 0
2000 1 6.146507501661629 1.4529950480278166 0.47636264288910724 1 -2 1
260 1 8.7284301291182 1.8074457752056983 0.2579609329765875 -1 0 0
883 1 12.111728772523193 -0.19923147728148038 3.80803970020541 1 -1 0
1313 1 12.210590531906394 2.446876698689276 2.858928405235896 1 2 1
184 1 13.658623850840469 1.166657782508287 1.425357417030952 0 1 0
124 1 9.581912734377022 18.119514866673583 -0.07570335803158934 -1 -1 0
1993 1 10.898107891857949 0.3580478378648334 2.0955503171418854 -1 0 1
1998 1 12.292505149463848 21.007531919211704 0.5561254911217852 0 -2 1
444 1 16.078462905819908 3.548637194696993 0.9281020384512042 2 0 0
337 1 15.201456073694393 1.7615059833286293 -0.3077778466463633 -1 1 0
405 1 14.474055707303041 3.2431433212317855 3.309612781091265 0 0 0
630 1 21.33532764187619 1.2558708916391208 -1.0424462882514518 -1 0 0
1257 1 15.673362606052162 1.4098866018544358 2.4271553167055386 -1 2 1
63 1 14.174501908459735 21.18723171098416 2.349702568337624 0 -1 0
430 1 17.012012416195915 -0.4362489210404771 0.2076612503576054 -1 0 0
675 1 14.828495424160755 21.476025296389786 0.273302883755999 -1 0 1
1908 1 17.894958287650407 2.6791831504117645 2.4499641343728094 -5 2 1
1252 1 1.5129699175760432 1.2554172820342864 -0.6117637055967815 5 0 1
1307 1 18.663162971561874 4.072665113236624 0.4350076204854858 -1 0 1
782 1 20.407457725361624 3.109325834278039 2.09240852660973 -1 1 0
67 1 18.889110899279018 1.5429022166642885 0.36201081085453923 0 0 0
816 1 20.186976188453603 -0.33454993894638063 2.111589622052057 -1 0 1
1927 1 17.645758280701322 0.3673145071596745 2.4783054277848287 -1 3 1
401 1 1.679659674673013 2.9305809103753613 1.0482779630347245 0 1 0
179 1 1.388719778476597 5.9677846771266445 1.783717623773608 1 0 0
1030 1 3.1758449772347555 4.592658058162592 2.4878953129061334 -1 1 1
340 1 13.495907582326378 19.100905467902255 11.535715834579985 -1 0 0
742 1 1.507485095793674 8.48410726501012 1.275953560919199 1 1 0
1817 1 3.478304874494426 6.843954723439157 2.012694369496466 -3 0 1
50 1 4.274548650748383 6.771913130507113 -0.4183830061222278 -2 -1 0
158 1 3.216691473061229 4.998134813465968 0.15248192288802054 -1 -1 0
756 1 8.863693537113273 7.612409736902277 2.5213530051035846 -2 0 0
761 1 5.500776046816603 5.447501563653294 1.6769194635641584 0 0 0
668 1 6.818281604063037 7.130462710313907 0.5128591793225066 -1 -1 0
595 1 7.8482248006726625 5.328788271068683 1.5750289240378628 0 0 0
1665 1 4.890038045904845 6.770554160824315 4.354755292699384 -3 -2 1
1459 1 1.1234983250899138 4.876549664744698 -0.4193567191516864 -1 -3 1
731 1 11.333896772861594 2.2406724095311215 0.836079896324069 -1 -1 0
1183 1 13.632647453599 3.385153257109442 1.12732790397202 -4 -2 1
801 1 9.271229749974319 2.67190984232827 2.5570706059431836 -1 0 0
1859 1 11.145070399747764 4.421706960906754 2.179004879218697 0 2 1
605 1 10.10037711671808 6.151565872685159 0.810456655304169 0 -1 0
553 1 13.089202494629053 6.071093361539091 1.5606074260216642 -1 1 0
98 1 13.539788539063156 12.556362648034852 11.665906725697123 -1 0 0
1670 1 9.532373179171836 3.9927780333922875 0.27050322370754487 -1 -1 1
238 1 7.99795044868193 5.6311144650026 -0.7661863499864975 0 -1 0
1611 1 17.452596228951712 5.86501079826667 -0.8425294452041312 -1 2 1
1357 1 15.277205468538373 5.645215000835301 0.13004949758625384 -2 -1 0
355 1 13.177969756483483 6.882440140117028 -0.9533314261359751 0 0 0
214 1 15.042755777222613 5.539023381943148 2.639980286329731 0 0 0
360 1 16.825835924482732 6.531593246697094 3.965006978915774 1 0 0
1223 1 17.51169138379882 6.305940821037923 1.8248625143741304 1 -1 1
705 1 15.246462730270405 7.9415881018023775 -0.4390434657374581 0 1 0
319 1 20.86274546661736 5.663948109940668 1.6217739914186255 -1 0 0
1490 1 19.173775242605547 6.599891423676294 0.18771413303314666 0 2 1
1135 1 19.46766869792425 7.241605790540666 3.310546149005811 -3 -1 1
301 1 18.962781188720978 4.683524444375708 3.2695294320349504 -1 0 0
1215 1 -0.3287201455211001 6.900374072196735 0.08024554209841117 0 -2 1
236 1 17.487541366283086 18.660918958870617 7.966466642021151 -2 -1 0
1734 1 16.86924235399413 21.014596576645403 7.518765384672832 -2 4 0
1029 1 1.8894489451895864 12.120935329998705 2.411661332347011 2 1 1
811 1 0.1568025467402333 10.407428208432561 0.8741824717198865 1 0 0
1655 1 2.897282746956705 10.911051904004674 0.5382862608814407 -3 -1 1
119 1 3.753507871912225 9.189428732238776 2.608019059021124 0 1 0
1909 1 10.710747661339843 0.48380752250847237 -0.6077327032920539 1 3 1
729 1 11.203669406026384 16.40871690812561 -0.8192044047838187 0 -1 0
288 1 6.002717667594458 8.111825140378679 2.880390686932539 0 0 0
1872 1 8.895005937388154 8.117780996787792 0.053873040038798115 0 6 1
100 1 4.853353719050367 8.695850196547827 0.6654068235124517 -1 2 0
626 1 5.5848846497383065 10.948659789055784 2.6093181229835545 0 -1 0
994 1 7.867936749872197 11.772014726895833 0.4987809547474651 1 1 0
56 1 7.432079867459309 9.377220704299475 1.2958340334439415 0 -1 0
932 1 6.1069607008958595 13.269429918353081 1.092653004341515 1 0 0
409 1 7.499321881990826 12.889762302656084 3.243819196640116 0 -1 0
1122 1 16.119293193550124 19.573613074571647 9.527843354307551 0 2 0
1559 1 10.440447699602505 8.899452408316696 1.9979837834291838 -1 1 1
78 1 21.323736525338944 19.023667499163132 10.946586240401732 0 -1 0
1600 1 12.199253713471293 13.068630578969078 1.5794040864620946 -2 0 1
759 1 12.187814469096509 8.403776189879604 0.737953958889743 0 0 1
663 1 11.151116279826116 10.959061212971944 0.4221713224912971 1 0 0
1588 1 6.434182900960605 18.839738221390192 -0.7967526395093728 1 -2 1
690 1 14.956151536438 19.603811493970195 -0.7153700573823467 -1 0 0
1662 1 17.409261366761182 8.866778660774267 3.1188143173576464 -1 7 0
841 1 15.516877526594032 7.753642724452572 1.9325795987402317 -1 0 0
515 1 13.169847725896812 10.996684768306947 1.6176012765990686 -1 -2 0
1857 1 15.560134132159497 10.034937850706056 0.8382849795644198 -4 3 1
1246 1 17.426854042387976 8.44976378456393 0.6960385882877911 1 1 0
505 1 20.387866324682445 8.2925192618377 1.4673625638054784 -1 0 0
139 1 20.053374232594276 10.774851052994252 1.4354131792190032 0 -1 0
252 1 17.33406436490937 11.07194323593354 0.577563205138848 0 -1 0
689 1 14.03603520980504 21.289860032400835 10.868815747359015 0 -1 0
456 1 18.00952024317515 11.519287403674447 3.087797520407447 0 0 0
1564 1 9.477609612018949 12.901347821632482 11.631167009468573 -2 1 0
1482 1 20.342795759269485 21.387858375381374 -0.152097392697918 -1 -2 1
57 1 2.1537819673302967 14.435904466988529 0.08218460494881996 0 0 0
1677 1 3.7741119634527562 13.026874413759453 1.2341946023992754 1 2 1
1200 1 2.5888235302092513 16.09569508520676 2.0517898798652494 2 2 1
130 1 0.7528483591126074 12.736095369556459 0.42788850760261 -1 0 0
628 1 20.29076350396475 16.513330566212552 2.9671836995047833 -1 0 0
650 1 4.760514394676264 15.122014051744545 0.9380197170576636 0 0 0
620 1 5.080785331648449 13.346615870084625 3.239497425496353 1 0 0
1207 1 8.324163555661894 14.262226541473474 -0.11587623134047165 0 2 1
1678 1 5.749753696294659 18.106578013229363 2.389293572462806 -3 0 1
347 1 7.660228797145296 16.690143390948773 -0.18918116056853884 0 0 0
512 1 6.8715731472644705 15.903206815810638 1.913011610470913 0 -1 0
1258 1 20.716812537906467 5.093024425002473 -0.8628969721721969 1 4 1
425 1 9.919271822372098 12.566506012095134 -0.9912188767424863 1 0 0
443 1 10.721746448671356 14.212185552688307 0.30016360335826575 1 -1 0
1738 1 9.447375292655126 15.816440387876842 1.4355382871477897 3 2 0
1379 1 9.692546787195747 13.294165960324229 1.8501181185106672 -4 2 1
1693 1 11.212502016852069 14.496713033638013 3.2095340976170474 2 4 1
1764 1 13.44568130710094 17.10726596504679 -0.24469090006376515 0 0 1
89 1 12.926296326468792 13.625014417420807 -0.645128731619651 -1 -1 0
224 1 14.501945714969613 13.254503834326526 1.40627790580024 0 0 0
1410 1 14.702809695357107 14.931699131694932 -0.6295764213504087 -4 -2 1
247 1 15.006870845635616 15.55930020584709 1.6468952293657004 -1 0 0
1230 1 15.999820186806112 13.663727493493418 3.105101658175289 -3 5 1
1393 1 17.08722997902053 13.636290893013857 1.3272446387822874 -1 0 1
90 1 15.611711345207318 17.162030903651523 0.1937731993618017 0 0 0
1044 1 20.747695387226276 17.20841581636089 -0.14954332671064874 -3 2 1
192 1 17.28337457442129 15.957030471369507 0.6626244757384294 0 -1 0
204 1 21.62809984418387 14.714729514972953 0.12957058179484382 -1 1 0
594 1 18.61480470534034 13.929608783687355 3.418646182045822 0 -1 0
1168 1 19.032063009189493 12.773872143208877 -0.13667977773902118 1 2 1
1651 1 10.925673366190898 5.882766483466819 10.969497180323987 2 -4 0
1982 1 19.448466469051457 15.399088447318796 1.135264231747604 -2 4 1
1237 1 6.866495030100274 0.34832394258470534 10.552094027969588 1 4 0
665 1 4.151284659364745 19.698850476948056 -0.32527603696165297 1 0 0
1679 1 1.1220519582063302 19.205494109108123 0.3929423376544743 -2 -1 1
451 1 -0.22194499728828535 16.558093304876778 1.5774601732184625 0 0 0
1663 1 2.9920370443246465 17.363180282764258 0.13136661069223443 -1 -1 1
1986 1 0.46406124747757593 21.429859350760996 0.565266794306444 -1 0 1
1073 1 0.7658113542492917 18.268371219681732 2.80730263528229 1 2 0
366 1 19.147641552915747 8.4918732698531 11.508287888398815 0 0 0
618 1 5.24499507388781 17.21329320461083 0.2502362572245167 0 -1 0
1148 1 7.981863721129983 21.507167298504193 -0.39372420830114285 1 1 1
165 1 5.503280731930328 20.27688800811469 1.4113746180424886 0 -2 0
213 1 7.729786305064421 19.62716283993968 1.027590993970822 0 0 0
1964 1 7.202623151958769 19.585700387834066 3.3116080524890252 4 0 1
24 1 4.008546038257705 21.15529173638985 2.8659866733234436 0 -1 0
1033 1 3.0670059254952826 19.197680596932816 2.186081311354399 3 0 1
414 1 14.445590804416492 12.001287490961293 -0.5360421462061237 -1 0 0
1354 1 9.906436752292299 20.755938394347087 0.917828409090842 0 -3 1
730 1 9.812138398669074 20.94889661716917 3.570926073713573 0 -1 0
1706 1 9.05548732978823 18.395934196535705 2.2043892998748946 4 1 1
1085 1 11.285884851608174 17.28173300205722 1.7428747935119944 0 -5 1
1834 1 16.005833840515148 5.836051275616436 11.210166153593132 -1 4 1
561 1 13.180433190661823 17.20013380331614 3.0130255731300313 0 -1 0
1841 1 19.678069143022963 20.257424484636992 10.841804917008666 0 1 1
1762 1 16.69375323397209 19.4110477146035 0.7508557563654725 -4 -3 1
1074 1 14.169120293349891 18.870757515336027 1.7858745747794935 -1 -3 1
697 1 16.424738363530675 20.462335870997887 2.7171289352898573 -2 0 0
1337 1 16.17420179080948 17.486936653769625 2.4805920161468635 1 3 0
1606 1 21.07338372863431 19.385110901526126 2.0929492875109506 -1 0 1
637 1 17.748293719565122 17.557502675568298 -0.9737927644591716 -1 -1 0
1518 1 18.539540537109357 18.020488037247937 1.3315446196482075 -3 3 1
293 1 20.603984085751144 19.288087009917913 -0.016038140165072656 -1 -1 0
1448 1 18.598086590635 20.37986964107474 1.3954235318362351 -1 2 1
923 1 2.2278699777998057 2.7904660748556673 3.326984772700082 0 0 0
318 1 1.0587334149715235 21.372856295106505 5.855769994389548 0 0 0
1262 1 2.9887108730234204 2.4513795549699617 8.159550392306127 3 0 0
1987 1 1.5953048698408918 1.4817542220883237 6.151479797047415 2 4 1
1851 1 3.1139565195178904 0.05516856356070654 7.275195347121318 1 1 1
342 1 3.072617709538601 -0.15082397209277226 5.044208105720119 -1 0 0
438 1 0.22779460299328091 1.1774226251484932 4.042999667031125 0 0 0
1628 1 0.16273707249920155 3.974940553883048 2.6164394953355954 -3 -1 1
1803 1 5.238437417924035 -0.4249504541188962 5.245286535053523 0 2 1
560 1 4.576124366789893 3.962310061018001 4.160886268465545 0 0 0
169 1 4.009329461098159 1.8785763426016504 5.6653061147451975 -1 0 0
958 1 6.427328632027184 1.9364294250003407 4.7033247003578476 0 1 0
549 1 8.183178734463231 0.9350657202870765 6.5262203721893295 1 0 0
899 1 6.024924546916925 21.30413180521044 7.385102470704757 1 -2 1
900 1 10.526271480213927 0.35689265299337625 7.362231465871146 1 0 0
1250 1 9.781403868424087 0.8286840506618474 4.778299576323722 -2 2 1
1001 1 7.657609276109962 21.603634402177864 4.764240018662284 1 0 1
25 1 12.62115229482878 2.4694309033632447 5.547371842601787 -1 0 0
1040 1 12.989016222492447 -0.2071498412060832 6.5791394544395905 -3 0 1
86 1 8.744655139205026 2.975143163389265 4.9841893373461925 -1 -1 0
107 1 10.541404209320572 2.853609057091253 6.906083578355097 -1 1 0
305 1 11.181734858865838 1.612508290389497 9.23701552306838 0 0 0
1080 1 14.038638690136782 1.0210523085997882 4.238577466417904 1 -2 1
128 1 13.201754174890745 2.121973849297365 7.791463904482081 0 1 0
530 1 13.121534565358408 4.532531800027235 6.797896329208887 -1 0 0
823 1 15.165197001943039 3.2702851649044042 6.181063922302095 0 1 0
836 1 16.954089224767753 1.6083224771795068 4.624048663785089 -1 1 0
649 1 15.262577747582585 0.5997748999723607 6.3561629326948275 0 1 0
1006 1 17.34639771216115 3.201375682399463 6.4324595215830165 -1 1 0
97 1 16.946987796911387 21.416667244052004 4.827575775897938 -1 -1 0
1419 1 0.12459193711953265 3.462518822851792 4.895005656749139 -3 5 1
574 1 21.15146729155328 1.359603260562924 6.064340252296325 -1 1 0
131 1 18.815599844562133 0.8026371411234787 6.094913493458587 0 1 0
320 1 19.09717508203094 3.1364566696643634 4.996506412264556 -1 0 0
1083 1 19.505247779512377 1.2431456266221466 3.855275894264145 -2 1 1
68 1 19.911173664771194 0.2409668826786907 8.436977991563184 -1 -1 0
1888 1 2.2419696045616564 4.796308096622376 4.776813960296152 -1 0 1
533 1 1.5154895356848737 4.349176573813151 6.960495052888104 1 -1 0
713 1 3.9649204375745732 4.271967241071976 6.051014243322664 1 0 0
1111 1 1.9513236214059462 7.2039672859305 4.122560295629528 2 4 1
94 1 0.5087464670620919 6.1407636267156835 6.120878143446826 0 0 0
1194 1 1.9235373706858554 7.150714089077565 8.369674978332368 -2 1 0
617 1 3.0318644564479182 6.435024504568639 5.996333118336575 1 0 0
14 1 0.12336287254295364 7.212956289361273 2.907245247406394 0 0 0
708 1 6.987278073479489 4.40852943676984 4.11281256995836 1 1 0
58 1 6.432250415453977 3.589413402463551 6.526581903781407 0 0 0
389 1 6.130749396165481 5.946184598286607 7.0634137229882015 0 1 0
1822 1 7.434863525255729 6.771846240261122 3.9366616913847032 -3 3 1
321 1 9.130718736634602 4.982823838831124 3.6805624351792634 0 -1 0
372 1 9.62352770778114 6.637543121324705 5.250733809548103 0 0 0
251 1 13.070666697629063 4.746111944024078 4.086280516482406 -1 0 0
1451 1 8.695078679871227 4.715376176760922 6.231962107898513 0 0 1
173 1 10.103335983561873 8.173507249855941 6.905578360084178 0 -1 0
1351 1 11.10072167539163 3.8749927974140217 4.5165716594583305 -3 2 0
676 1 16.874964075570315 4.22056835258526 4.141411386351104 -1 1 0
1569 1 11.77338361612306 7.315836820789181 5.639221970427519 2 0 1
172 1 14.826650128819782 5.76683841447148 5.188201825188724 0 0 0
820 1 13.272422954684984 7.600824064948652 3.8415627911358428 -1 0 0
383 1 13.98607544116049 7.2545657968246555 6.813376302436602 0 -1 0
300 1 15.986920539755886 5.099805387033489 7.337141296097789 -1 1 0
1259 1 17.543169765814202 6.894910752371659 7.760446618116511 1 -2 0
1399 1 17.894119728384677 5.610048259090197 5.8919077796946855 -4 -2 1
375 1 20.770487840612034 4.303983297717772 6.501788241103879 -1 -1 0
535 1 21.2641242938698 5.485478343222817 4.170615399436535 0 -1 0
364 1 20.05503238383736 6.347055661608885 6.228283467724561 -1 0 0
43 1 1.0769399785179428 9.479820802435587 3.276323043782795 -1 0 0
1561 1 1.1164139963519062 10.904120407761669 5.320385964819495 -1 3 1
1631 1 1.4462651482388817 8.356823729387125 6.454664068700325 -2 -3 0
471 1 -0.21746894083406154 10.13327050949079 7.062204341298282 0 0 0
1016 1 3.0708752698906223 12.930818919140124 5.789176860474682 0 2 1
567 1 21.683845725936184 11.225471877357988 3.3422658312850553 -1 -1 0
311 1 2.0790737957938505 9.628988711211091 8.286320578732493 0 -1 0
111 1 3.2040474246975603 11.041678494615418 4.258211469557603 0 0 0
1855 1 5.528679368852086 11.920201532264933 5.144052074989087 -2 1 1
544 1 5.932085061159535 9.649601668752394 4.816892476773288 0 -1 0
33 1 7.962260848715374 11.597398568575318 5.181667838231254 0 0 0
863 1 5.438473256604167 7.93303463184394 5.980136546963345 0 1 0
269 1 3.222117727379853 8.698649957327229 5.184514464083397 -1 1 0
249 1 4.406377597944011 7.613713769560656 8.406696427851534 0 0 0
2002 1 4.036306972656853 10.344261748512846 6.632047662134875 1 1 1
371 1 12.286232797675602 12.239392491775172 3.775803912225122 0 0 0
672 1 10.414373228673604 10.898696143467204 2.93003211216861 0 0 0
126 1 10.339549855891649 12.463927471954966 6.974812713695918 0 0 0
996 1 10.59166351498521 10.40364215016338 6.015041227267578 0 1 0
770 1 11.155703112790126 6.720288727033319 3.087932342303037 -1 0 0
363 1 7.866728686495852 10.156293664866764 3.494606398946048 0 1 0
992 1 12.658723498634467 11.829028352601243 6.8936387396397585 -1 2 0
1722 1 12.18075684142831 9.958256744514568 3.8451398334630946 3 0 1
1176 1 14.812801078421993 9.212701664003236 4.128169975958593 -3 1 1
791 1 9.978193590520569 8.574910966159404 4.384955394871977 1 -1 0
768 1 13.017235776437383 9.657757842546536 6.018101132709265 0 1 0
942 1 15.33725361313198 11.313938274985597 2.703926265560283 0 -1 0
1167 1 15.241641612554739 9.44992781638716 7.266542648088439 -2 -4 1
573 1 17.607778647925983 10.058753962208952 7.481271893098905 -1 0 0
1898 1 15.158404237480855 11.817063102978517 6.2310867674367865 -6 3 0
984 1 17.325182290535317 10.031926869092583 5.1962689421712085 1 0 0
1632 1 19.786764440411385 9.350427838479698 3.738294544870941 -2 -2 1
215 1 21.521099462820704 8.400477092979116 4.964544810129916 0 -1 0
272 1 19.550964321205633 12.216265131199131 4.700291231557061 -1 1 0
183 1 16.046667640120187 7.842181645256769 5.71325841848997 0 -1 0
545 1 18.679508303242795 8.236424194876086 5.579281723056225 -1 0 0
289 1 21.27946655559697 12.39510047056135 6.526232770541822 -1 -2 0
1439 1 19.75609831305408 10.494867644107583 5.987449191672639 1 1 0
1878 1 0.38241622290628174 14.175953709028695 2.249866461445812 -2 0 1
1920 1 3.336121379700891 15.190200418116003 5.343938957867252 1 1 1
643 1 0.8805574662039715 13.102166952100516 4.459138458055757 1 0 0
125 1 0.9477098854040571 15.449600775065049 4.322896964828496 -1 0 0
457 1 0.47438370175926714 14.675365674410225 6.420199254607042 0 -1 0
178 1 2.8186525732676246 14.297432839933226 3.202391858485793 -1 -2 0
310 1 4.856904059050974 16.260695807147037 3.2956747960932473 0 -1 0
152 1 6.658146475901894 15.067402752874566 4.158327909648651 0 -1 0
1318 1 7.76385705766179 15.988778725794251 6.069983872792819 2 3 0
180 1 8.77726821276784 16.5039509033608 9.304105379932473 0 0 0
295 1 8.005019884571025 13.79682014346213 6.294110347443789 0 -2 0
767 1 5.5308916638014445 14.608271290260921 5.9639361960692066 1 0 0
499 1 9.869027780742229 12.468328989399096 4.314866116765662 0 0 0
117 1 11.977501868906119 13.84770916023406 5.631551625749734 1 0 0
1424 1 13.371269167167112 14.91244578176193 3.524554297009445 3 1 1
322 1 9.781295049727124 15.396625457279313 5.46150828133992 -1 -1 0
1578 1 12.174452506011589 16.264995497263772 5.40095255272605 -1 1 1
191 1 8.841002395236677 14.896562590061164 3.5670675254420274 1 -1 0
1304 1 10.36466023382367 17.239685802670888 4.066377445023826 0 1 1
1833 1 17.536300091148505 15.708314158277467 2.9770269174046433 2 0 1
925 1 14.365159946887298 12.965234232126488 4.379198773632623 0 0 0
531 1 12.483992516037747 15.476632027395794 1.2991911958099953 0 0 0
1629 1 17.08955366232925 12.320079481049344 5.165863431705755 1 0 1
1586 1 16.574424492418174 14.64191046542564 5.3918758197112755 -4 -2 0
852 1 14.22328476688749 16.87288984601198 5.98746397475351 0 -2 0
1435 1 16.473087105136607 12.697862703692493 7.98545380283662 -3 0 1
748 1 15.337586835879668 16.283662009266816 4.208199760295237 -1 -2 0
1199 1 14.079607374659302 14.508551621789945 6.139191225461684 -1 -1 0
1533 1 20.400590296965742 13.151383771800084 1.9947595449727982 0 0 1
1188 1 20.960589199615356 14.154427309126328 4.3715354769627455 0 -1 1
185 1 18.803570586939685 15.914781301993933 4.924304370855862 -1 0 0
998 1 21.518625216213003 16.779302610193174 5.666465243991036 0 0 0
751 1 17.831293768769047 14.3214540015935 7.783732387144115 -1 -1 0
144 1 20.120381238854584 14.744102175921856 6.79930629705484 -1 1 0
865 1 2.920978781102961 17.392159891045683 4.314892786420909 -1 0 0
160 1 1.8412195147157844 19.493004180894367 7.314076815095509 1 -1 0
1501 1 2.606354752144506 19.71241328811018 4.710275202979416 -3 -1 1
522 1 1.5208246355898072 16.96016184770017 6.633165710380152 1 -1 0
909 1 20.76666273809055 21.072470734908297 6.286115491550159 -1 -1 0
271 1 21.43090517213454 21.177248417362115 4.093254104747224 -1 1 0
163 1 0.3552938843225497 19.145279804880158 5.104403951867606 0 -1 0
203 1 7.6689152838866566 17.208332828839314 4.159186576767872 0 -1 0
292 1 4.481476617864225 19.568595495763336 6.454872836091153 0 -1 0
1371 1 5.4434144670081706 17.50905754601563 5.0520015425473135 2 3 0
1004 1 5.024709959859364 19.375902767410636 3.951357294857191 0 0 0
1346 1 6.583455710968404 19.491574938636738 5.569779709280065 -3 -2 1
966 1 7.040452768462844 20.24364219405872 8.875881705393013 1 0 0
230 1 7.7666776727225635 18.084229674356852 6.888984527733556 0 -1 0
1049 1 10.756342963780332 20.789668000374927 5.728086052033016 -2 1 1
556 1 12.526048533069094 19.320996890764288 4.123046511124472 0 0 0
1423 1 11.529538839617356 19.373339141850263 1.9310746135517882 -1 4 1
527 1 9.148242758909758 19.25155089905513 4.845615702490361 1 -1 0
703 1 10.706113688614874 16.15176665251877 7.560845501650688 -1 0 0
656 1 8.650027731677898 20.615004526697042 6.983555013119867 0 0 0
699 1 10.260567240350621 17.92773302001654 6.28260554868201 -1 0 0
806 1 17.00242636662085 16.979752822836222 5.752565974875499 0 0 0
504 1 14.483157768486388 20.88806187861147 4.697196643188285 0 0 0
1376 1 12.707391214275983 19.049317154008087 6.286514402857111 0 3 1
677 1 14.725657498199965 18.341725362977737 4.33338482717833 -2 -1 0
732 1 16.202459679052893 19.319340055994836 6.055713431814733 0 -1 0
73 1 14.236618538264919 20.386009568517387 7.256658018649794 -1 -1 0
177 1 21.13592242672846 18.805801590847018 7.1153170720159125 -1 -1 0
170 1 18.87897066585705 20.684357145882597 3.7950705659215647 -1 -1 0
188 1 19.218175181166238 17.434872931959017 6.422116822064406 0 0 0
1400 1 20.53591228594797 18.59607086465146 4.501554996253878 -4 1 1
835 1 17.85174658029531 18.50605025351964 4.033094933620137 -1 -1 0
350 1 18.53476102176271 19.73135969889761 6.134063430962546 0 0 0
1068 1 1.2360814436230938 2.031732176832607 10.314552738507249 -1 2 1
298 1 4.620490513291053 4.908133992696271 11.004100497583643 0 0 0
1090 1 20.343206596709912 2.778365204164577 11.642782579458792 -3 1 1
879 1 12.183411947420694 4.726553332235056 -0.19207222380515832 -1 -1 1
694 1 2.1784749360578686 21.623625717539333 9.227097742280753 1 0 0
379 1 21.6453981690144 -0.19368389617865367 10.564689812162246 -1 1 0
1730 1 4.047321407331034 2.4809022327168084 10.381346894258 -1 3 0
1403 1 6.072216602918188 1.3060815047978502 7.017269437225675 -3 0 1
219 1 6.17192327530549 3.2672433989588923 11.108809712946796 0 0 0
490 1 6.525434328596683 2.2009392975107493 9.217228677903108 1 1 0
501 1 5.848608042217961 10.078374209208155 11.482510828041102 0 1 0
161 1 19.000115119961396 20.320340111594124 8.492711428607151 -1 -1 0
696 1 4.417459165586436 0.6987731872748215 8.864049735389257 0 1 0
346 1 8.956407268276108 2.435591501529219 8.422676371657323 1 -1 0
1355 1 11.403505108657663 20.0431881321169 7.858869411831904 0 2 1
2010 1 11.289635255788369 3.3605735587548193 10.822535438589545 -3 4 1
55 1 10.878039483829015 21.197103692005765 10.009259718282243 0 -1 0
1917 1 13.780067635031504 1.5928558790167733 9.906215942229055 0 2 0
750 1 12.15609103359184 3.6636114896794076 8.77183952082531 1 0 0
398 1 9.587391092069057 0.7407660980577546 10.625090983289871 1 1 0
539 1 15.336772886928557 0.3557424683441901 8.621387819603422 -1 0 0
1327 1 12.484154921165574 -0.09837098405692046 8.752620915829386 -1 0 0
349 1 14.982985654508733 3.041842489005224 8.583161725082752 0 1 0
208 1 17.128195753033705 4.7524907030070125 9.714867789650404 0 0 0
381 1 15.271533020162888 3.579664304638282 10.995394941659075 1 0 0
1312 1 14.929168579163099 17.810903803972046 8.018650149630355 0 -3 1
654 1 19.57931027365227 2.380350976971475 7.619505165997621 -1 0 0
1792 1 17.471019668071442 1.3583418938104945 8.014026975423684 -1 0 1
1506 1 0.553650309405175 0.8429681298989244 8.039823567285561 -3 -3 1
171 1 18.410571774518676 0.40742042842058457 10.210563987680876 0 -1 0
352 1 21.053078207653556 2.156699282340524 9.658674898053976 0 1 0
484 1 18.2027637052861 2.7739246107574025 9.652995344985388 0 0 0
1229 1 1.6551678585774776 4.184786534666645 9.271516671287975 1 -2 0
264 1 1.6087495144328852 8.80270336972995 10.369243663846094 1 0 0
541 1 1.9145710946953547 5.73897885274683 10.760332420902028 -1 0 0
635 1 3.7755082445527117 5.612456101857578 8.671233114911281 1 0 0
851 1 2.7157813786592513 3.8329721253213895 11.645222065986754 1 0 0
1605 1 3.830844807942264 7.374346292014706 10.697589359358657 0 1 0
380 1 2.165354474788443 21.007692085562947 11.793555849661212 1 0 0
242 1 6.127920874409708 7.7249409500874595 11.53374063706847 0 -1 0
1071 1 7.181922521649684 5.530882646770133 11.319955141489528 1 -1 1
1163 1 7.558418564610992 4.658157298411528 8.585546437327354 -2 1 1
1082 1 8.654883824733165 6.741936734885364 9.96054902141516 -3 0 1
190 1 5.14625741077978 3.869104052046331 8.483660186256317 0 0 0
112 1 5.988814830175117 6.409542726549579 9.642466793890254 0 0 0
1160 1 6.638004981586924 8.60612277155181 8.243115746014821 -1 0 1
1742 1 8.164691712983977 7.112436687441762 7.337865502552702 3 0 1
1589 1 17.97900729817473 18.583074171741554 10.597710702698446 -2 0 1
181 1 10.844910988060455 5.568316648883429 7.09460050544782 0 0 0
563 1 10.100804173824141 8.495882085837364 9.214180386038214 1 0 0
243 1 -0.257959387088207 4.1050333982619325 10.696814156130985 0 0 0
991 1 13.022813653718387 5.195768562147674 10.684664654497842 0 0 0
1521 1 12.035150045333639 6.613145344418779 8.797552278037971 0 -1 1
103 1 10.049143454688869 4.525330633510803 9.085128462656632 -1 -1 0
145 1 14.621640265202942 5.752087570502812 8.987612191017675 0 0 0
149 1 15.899239703663987 7.642408890200514 8.89009365552531 -1 0 0
718 1 17.750840420073597 8.996099451557454 9.823686944843946 0 1 0
614 1 14.049350469903304 7.238372519694305 10.672202182230015 -1 -1 0
105 1 16.35955833077561 8.280318877765366 11.20165938250216 -1 -1 0
1812 1 0.07404240757920111 2.8912429785825826 7.832430168483004 -3 1 0
1904 1 18.105474402289545 6.722394314569865 10.188612857878027 0 -1 0
547 1 21.64796155744028 5.476251742214375 8.632059621064785 0 1 0
1226 1 18.65029172833667 4.854289762270917 8.014212573601482 0 3 1
323 1 19.658171932896312 4.777766193731479 10.196723457677589 -1 0 0
1731 1 21.564620732956737 8.96037452855672 10.09287126610357 -5 -1 1
333 1 19.831322428008363 7.243104297363183 9.279054221957638 -1 0 0
1235 1 1.4576326917793925 12.068317168334556 7.515020583201469 3 1 0
1231 1 2.4467323060723354 11.273523937236808 10.284870545535387 1 1 0
1785 1 0.7414442227639133 12.499974700202484 11.149735234960433 0 3 1
220 1 3.8034042090164117 11.625455389366124 8.420984114621936 1 1 0
6 1 0.33011388950054155 11.03504056144124 9.417552067862692 0 0 -1
1604 1 16.414244981997715 17.03535489626188 9.763235531263893 0 -3 0
1852 1 7.701757255891334 9.057195389069102 10.10193638639063 2 2 0
1672 1 13.727297539570337 19.27191054812892 9.254762774845787 0 3 1
1412 1 4.738717537219817 9.470188768785338 9.425160070357718 0 2 1
3 1 19.81615778708546 18.118006265861386 9.2367433368447 -1 -1 0
684 1 6.973418818378635 10.60518714636999 7.029752383941785 0 0 0
784 1 6.233675812007378 11.019676557869417 9.490038632081182 0 0 0
543 1 7.844108397381497 12.317963040840226 8.42276322474759 -2 1 0
481 1 7.903140771421024 8.670148725070923 5.591893523081232 -1 1 0
829 1 11.705780892458145 10.175354861684736 8.478182702690306 -1 0 0
1997 1 10.82026444080379 10.3206003759285 10.920942287165254 -1 4 1
941 1 9.078255453031016 10.232510092881077 7.935680482579343 0 -1 0
520 1 12.082473560038316 8.22056445632763 10.608750812515918 0 -1 0
580 1 10.109280240482391 11.904343422536694 9.114056930704706 -1 -1 0
1935 1 14.017641591041295 11.015637433033902 8.304713780200208 -6 2 1
212 1 15.847468586724695 10.278103289705385 9.597113017312951 -1 0 0
607 1 13.68722930987449 8.51424351577518 8.751461839534278 0 0 0
1779 1 15.976669481895438 12.629353232630258 10.3771746448308 0 1 0
1284 1 13.668386413187402 10.056036381864605 10.652923461345658 -1 2 1