LAMMPS data file via write_data, version 29 Oct 2020, timestep = 300000

864 atoms
1 atom types

-0.0855711704297537 21.349571170428835 xlo xhi
-0.0855711704297537 21.349571170428835 ylo yhi
-0.0855711704297537 21.349571170428835 zlo zhi

Masses

1 58.933

Atoms # atomic

8 1 3.6046278590804373 1.5607023509386864 1.7551103451295444 0 0 0
27 1 1.8708480702493973 3.4487265158752307 1.6425819863655673 0 0 0
146 1 1.8657645855580294 1.6616013769268392 3.4564948358914394 0 0 0
173 1 3.639244652724224 3.422319830567268 3.4075645307612192 0 0 0
147 1 1.7237490664377626 -0.04994968173846997 5.225253521428943 0 0 0
152 1 3.5895458690646875 1.8216718449765568 5.306742969534602 0 0 0
3 1 1.7687058699411538 21.26935187238975 1.775629109757285 0 -1 0
171 1 1.8597563373378982 3.5533568277913146 5.155793831733357 0 0 0
268 1 21.25487347579174 19.699048062242383 5.2626623792793215 -1 0 0
409 1 21.305986176741172 17.84238053104523 6.8967767690222335 -1 0 0
12 1 7.191321527679971 1.6837276819256726 1.7751808953092454 0 0 0
31 1 5.472631964421969 3.438264985696378 1.7094742822584894 0 0 0
150 1 5.491924688795671 1.637314834127488 3.6161020908719594 0 0 0
177 1 6.993605527492951 3.48928202710374 3.497375277132079 0 0 0
156 1 7.185900477002479 1.879831254584299 5.367672474825267 0 0 0
175 1 5.372067000794616 3.580589854006991 5.347076025062407 0 0 0
6 1 5.555460519623255 1.694388013417684 -0.05148360921021758 0 0 0
16 1 10.712493248294601 1.7035101856393744 1.7227015858921613 0 0 0
35 1 8.987847010876365 3.5436401661543755 1.685885680715797 0 0 0
39 1 12.450256816309334 3.511625727812662 1.7656028573402462 0 0 0
154 1 8.946856136120477 1.6770677032822099 3.5275492744756387 0 0 0
158 1 12.344649454877135 1.6234403111634177 3.478865268278635 0 0 0
181 1 10.594918439409446 3.5080837180900066 3.6586233881340466 0 0 0
159 1 12.528756325962913 -0.05927453542959149 5.514407225977205 0 0 0
157 1 10.685427583712551 21.333805818467475 3.7296096189366974 0 -1 0
155 1 8.940770800506446 -0.01903197477126381 5.339720003530352 0 0 0
20 1 14.167059523546389 1.621259341469439 1.5586725013912843 0 0 0
43 1 15.890892176511025 3.5174229821595615 1.6872609546908701 0 0 0
161 1 14.216862641840764 -0.06757855407561413 3.4567591077152997 0 0 0
162 1 15.932519155731947 1.6926634679029 3.4554646542125944 0 0 0
185 1 14.159753648659954 3.4534549887855253 3.465924960830657 0 0 0
164 1 14.029424697280186 1.733234116706736 5.285651473759988 0 0 0
19 1 15.865893151574674 0.09526953388009782 1.448712246151649 0 0 0
288 1 17.66936607575485 19.527307825644215 5.134403698518915 0 0 0
4 1 21.322142987709995 1.6967339625668427 1.6528228474276494 -1 0 0
169 1 0.08380662921418747 3.407426767558599 3.404436050506415 0 0 0
24 1 17.78715437928561 1.7831286207283592 1.6007759384769995 0 0 0
47 1 19.529116717716107 3.4312137188393237 1.705800817460878 0 0 0
166 1 19.463212111716985 1.7530587992230322 3.3282471119514114 0 0 0
189 1 17.789486357694727 3.565444966896266 3.332303994286336 0 0 0
23 1 19.602868751221017 21.261764594734323 1.6297426075745762 0 -1 0
167 1 19.47019503998827 0.02224891540874345 5.200450706138148 0 0 0
553 1 21.160262218079616 17.82692942147002 10.61958077863355 -1 0 0
145 1 21.165974477765502 -0.030688345039585743 3.4207294423451287 -1 0 0
165 1 17.76844253507415 0.07782761326696025 3.529479198077906 0 0 0
168 1 17.570367377622375 1.7384822094683476 5.261432615872698 0 0 0
412 1 21.168836747508117 19.53301362404725 8.849511845819498 -1 0 0
25 1 21.273645803291295 3.4565031864424793 0.01698044914671354 -1 0 0
429 1 17.6327409694197 17.658914393259025 7.061962922302612 0 0 0
430 1 19.304903943222676 19.728541692393918 6.888550190979537 0 0 0
32 1 3.843053955288689 5.170711216806781 1.6416824388299072 0 0 0
51 1 1.8527667046196719 7.014184724365183 1.7094677439884103 0 0 0
170 1 1.7214584295979443 5.276120467575645 3.4641424966712133 0 0 0
197 1 3.418032389326819 7.146199863438333 3.5725368101017554 0 0 0
172 1 0.013301031792563311 5.16591288351259 5.093268866069714 0 0 0
195 1 1.711209502750633 7.090242652050564 5.285800741991065 0 0 0
176 1 3.5185763939970105 5.192659361125219 5.119180796213234 0 0 0
36 1 7.072470776192666 5.278974955701121 1.7725794806913144 0 0 0
55 1 5.264932233161251 6.98108854481166 1.7605271078861626 0 0 0
174 1 5.385859876115295 5.291854996332978 3.4744095662874126 0 0 0
201 1 7.050459047790565 7.100964968876742 3.567162751736165 0 0 0
180 1 7.340467483486118 5.291905481558978 5.323007191757891 0 0 0
199 1 5.2302383507523205 6.923139152688232 5.238350731211659 0 0 0
57 1 7.113439811430529 7.167484197714066 -0.08039006533036226 0 0 0
40 1 10.626895307196316 5.231881044276924 1.7071902398037548 0 0 0
59 1 8.829666810486172 7.058649932732358 1.6133789720915122 0 0 0
63 1 12.296696671749723 7.108565344980151 1.5548306127169822 0 0 0
178 1 8.93933015173308 5.386142582764266 3.4370931903137913 0 0 0
182 1 12.316735228689405 5.282888927574025 3.5461937158489345 0 0 0
205 1 10.709896532460943 7.0598584486747615 3.449072313032704 0 0 0
431 1 19.358832170319552 17.83394836164929 8.71018385763866 0 0 0
44 1 14.068317668734789 5.280810284153882 1.6251093268776458 0 0 0
67 1 16.011958883445686 7.1349236768304465 1.6197239241103765 0 0 0
186 1 15.823917053217672 5.311665409399992 3.498261621252436 0 0 0
209 1 14.022755091727875 7.054517764383696 3.4494451696161006 0 0 0
42 1 15.864157092425538 5.269582613136977 0.0014911048741867716 0 0 0
432 1 17.70197587635883 19.647492385599563 8.639274359029313 0 0 0
28 1 -0.025897463262104736 5.182150809162955 1.6852017788382665 0 0 0
193 1 -0.03140649387481176 7.023034321522655 3.554102011069194 0 0 0
48 1 17.720075255272832 5.15580887015585 1.5528745600977976 0 0 0
71 1 19.53079570812941 6.9730842432166344 1.664758708262885 0 0 0
190 1 19.540888093372587 5.091201546662576 3.4264458567959157 0 0 0
213 1 17.907236040616226 7.055599442089841 3.5521765717970513 0 0 0
69 1 17.755260830655835 7.17277718199276 -0.06303725405498813 0 0 0
215 1 19.65381048916298 7.006214389123914 5.34747025560474 0 0 0
46 1 19.563134905875053 5.24419503341341 -0.04057968732226758 0 0 0
56 1 3.434268052273375 8.85525805297658 1.626986233204103 0 0 0
75 1 1.6421883434154505 10.68893750527262 1.6802969019562681 0 0 0
80 1 3.5085283431519043 12.45045596250259 1.5054059533212263 0 0 0
194 1 1.7429804848048485 8.882671550007265 3.5260567960778975 0 0 0
218 1 1.8611062692987188 12.41892570077424 3.398820312645635 0 0 0
221 1 3.6844889837412267 10.616748289536188 3.448369286699461 0 0 0
224 1 3.617890975374473 12.37867247599761 5.133368403059963 0 0 0
200 1 3.399419840954096 8.922194338536801 5.203235060884037 0 0 0
76 1 -0.0531299465463252 12.542843349206676 1.7005354243047557 0 0 0
52 1 -0.05604670046808713 8.649417419043303 1.5809212869473115 0 0 0
569 1 14.057836411607301 17.73211470337033 10.519161041472813 0 0 0
307 1 15.983399627726518 -0.08000375019093298 8.936104002788642 0 0 0
60 1 7.109332120509135 8.784648582144724 1.6778585615967838 0 0 0
79 1 5.334062589700166 10.59132992389953 1.7458853048978615 0 0 0
84 1 7.063712418600909 12.474268229931319 1.6662606795044697 0 0 0
198 1 5.246353562463593 8.706471392695223 3.5398892752779987 0 0 0
222 1 5.403971253962163 12.448996294663331 3.380654499785495 0 0 0
225 1 7.089356125533673 10.444704827964383 3.365623058162364 0 0 0
570 1 15.928773910171765 19.602339121324306 10.594751732009584 0 0 0
228 1 7.10334713035035 12.27464053567625 5.289430006373347 0 0 0
223 1 5.259085490831244 10.494948691135633 5.134362909643077 0 0 0
64 1 10.642232627366958 8.967691728057268 1.720354862646194 0 0 0
83 1 8.769785378364908 10.588801654424033 1.5724847406344034 0 0 0
87 1 12.437161993524478 10.628187627744449 1.7637157479454255 0 0 0
88 1 10.63228513964748 12.517162587604014 1.6796845406754668 0 0 0
202 1 8.91203377567403 8.812009390858897 3.2697887804966217 0 0 0
206 1 12.481197071857464 8.911639380368563 3.6903573142701216 0 0 0
226 1 8.771274633318157 12.251062782786818 3.3883910444887593 0 0 0
229 1 10.626463921261228 10.687172742391777 3.466132388993048 0 0 0
230 1 12.520878075385978 12.415048742846153 3.5577903230678842 0 0 0
208 1 10.657786283960995 8.781829286066074 5.224140033513831 0 0 0
232 1 10.612604332274437 12.374331986344329 5.2041076036545055 0 0 0
227 1 8.92123159276812 10.40732297801677 5.276644316071245 0 0 0
62 1 12.378850455896021 8.912355782777011 0.0027311467435907066 0 0 0
86 1 12.305444257762648 12.416844500863748 0.017765520801273943 0 0 0
68 1 14.172479782411314 8.69386492280112 1.6705272383249195 0 0 0
91 1 15.958016812482844 10.448781152182645 1.7478503504788985 0 0 0
92 1 14.301809950042992 12.405838614229866 1.6343658145271034 0 0 0
210 1 16.092957917318166 8.711910705978106 3.391745016486218 0 0 0
233 1 14.360869166773963 10.538810663390027 3.5685170305692004 0 0 0
234 1 15.892015784919977 12.390038287559586 3.5024398033437305 0 0 0
66 1 15.908430713955035 8.90460603772451 -0.049189075864038055 0 0 0
89 1 14.011215594269927 10.600914168990847 -0.08512968483622196 0 0 0
217 1 -0.009944539034876243 10.6090510644532 3.396499310443978 0 0 0
72 1 17.85375002503406 8.809593517944382 1.6873523413565847 0 0 0
95 1 19.544780278703158 10.615771199141514 1.7807270769585521 0 0 0
96 1 17.694499763403137 12.4884486331949 1.6904636324528732 0 0 0
214 1 19.540438642026913 8.872886401010238 3.540281121912214 0 0 0
237 1 17.63394145689682 10.587946089932675 3.375066819361409 0 0 0
238 1 19.618325143390727 12.310979566271934 3.375205943274669 0 0 0
70 1 19.603572226946937 8.831682972013775 0.0013689329637877473 0 0 0
93 1 17.802055125182278 10.61146403279565 0.11095853576972806 0 0 0
99 1 1.6156606265778841 14.37544781076939 1.804318524319133 0 0 0
104 1 3.4297692845811705 15.907631290854274 1.6448622573317742 0 0 0
242 1 1.7059807253705046 16.143154618764605 3.4419420806477263 0 0 0
245 1 3.657902858117945 14.122670574531963 3.593177146151682 0 0 0
243 1 1.7279744862283155 14.254602837041586 5.272614879766559 0 0 0
248 1 3.4004115295957997 15.97636788762331 5.136852069244227 0 0 0
97 1 -0.05599072370801538 14.356783609705646 0.10535555413795467 0 0 0
103 1 5.358054676699505 14.271384727778672 1.7334350473760023 0 0 0
108 1 7.022663438440554 15.944059825826306 1.6825550969706813 0 0 0
246 1 5.2674559919868535 16.10873994332784 3.5417327980438573 0 0 0
249 1 7.034632549757185 14.2912092446314 3.581740231505112 0 0 0
102 1 5.391984974323355 16.045347686871594 -0.0800243292929709 0 0 0
107 1 8.9209896761871 14.22308918200919 1.8511657411052327 0 0 0
111 1 12.332479714436172 14.299600236363224 1.7150802273737964 0 0 0
112 1 10.559341841202817 16.03062460630772 1.7616298361887073 0 0 0
250 1 8.811952283500242 16.071625665074215 3.5057973896312564 0 0 0
253 1 10.647156354739332 14.223864326909215 3.5610083366331744 0 0 0
254 1 12.452466559956148 16.19456310382636 3.4736582583284092 0 0 0
256 1 10.59324543585561 16.008030975709183 5.144359424505676 0 0 0
251 1 8.818398155607886 14.236364378032428 5.18700655543531 0 0 0
115 1 16.026827339741082 14.247281007850095 1.642092228830055 0 0 0
116 1 14.163815323668091 16.03917146479744 1.7225699336068387 0 0 0
257 1 14.172430080398298 14.295467796136844 3.5581376149052573 0 0 0
258 1 16.031169174693204 15.897653311197976 3.4762367959186875 0 0 0
425 1 14.2264069281177 17.66621605228653 7.016032653273119 0 0 0
259 1 15.814215410665684 14.160374279658534 5.335943678529584 0 0 0
100 1 0.007889053249073186 16.076762692590883 1.8045472663147355 0 0 0
241 1 0.02339407140365779 14.28462066305261 3.6401232422065726 0 0 0
119 1 19.483554237829807 14.257393433603129 1.8848001059968433 0 0 0
120 1 17.79057849354966 16.071231721266223 1.6439979582914883 0 0 0
261 1 17.762020556196283 14.153748855765743 3.4883825244141877 0 0 0
262 1 19.425012948533215 16.11651499459863 3.4750515508233444 0 0 0
426 1 16.084522177878043 19.57204209657698 7.024486386758068 0 0 0
264 1 17.768208562976646 16.089584309826208 5.320019980069068 0 0 0
427 1 15.897740045345836 17.796086966158832 8.792205457882227 0 0 0
149 1 3.5313985640166767 -0.020413915841857033 3.678577124438207 0 0 0
123 1 1.7055220205656099 17.85992556006024 1.92460388307587 0 0 0
128 1 3.5520503727202994 19.625713926134047 1.8607769774903993 0 0 0
266 1 1.8618015318813173 19.617154295951906 3.5563859876534023 0 0 0
269 1 3.6415623697913713 17.805496323407503 3.6664512019999864 0 0 0
124 1 21.30263335880931 19.520303582368307 1.7474940600419586 -1 0 0
267 1 1.5651525752064648 17.94734167615058 5.297806527715453 0 0 0
272 1 3.6189965514465623 19.646132645181922 5.235399340710946 0 0 0
153 1 7.215240302518703 21.193629949071607 3.543234110606083 0 -1 0
428 1 14.182050222939955 19.503738687074275 8.810153872637676 0 0 0
7 1 5.431758567966398 0.056640344899278716 1.5915950532698486 0 0 0
127 1 5.320319103543949 17.785651415276185 1.6128821103773041 0 0 0
132 1 7.06907536530166 19.512036424124048 1.760059080208818 0 0 0
270 1 5.365805392327596 19.765481435506494 3.5208729163511348 0 0 0
273 1 6.9167155029855065 17.75308526165366 3.6238017897345833 0 0 0
299 1 8.74607170961993 0.08833746662983089 8.915390915974255 0 0 0
151 1 5.428712590151707 0.13129494046822288 5.414053179409151 0 0 0
271 1 5.341910739569669 17.849973360855536 5.393194588141873 0 0 0
276 1 6.984671359576691 19.70457887838154 5.395989766655523 0 0 0
15 1 12.379758413538053 21.310442807338845 1.7871818336250476 0 -1 0
11 1 9.028363769115504 -0.042224042284743746 1.840755270472618 0 0 0
131 1 8.682663799438627 17.748872370579804 1.8925099542313704 0 0 0
135 1 12.426371069910264 17.71409376455545 1.4843243046397652 0 0 0
136 1 10.732196289910028 19.586481959668745 1.6433538318386502 0 0 0
274 1 8.86200156384021 19.555281309878723 3.6586655219476656 0 0 0
277 1 10.548450255358244 17.91149663900879 3.399711751237064 0 0 0
278 1 12.348371302782322 19.545444331053083 3.5265965687975673 0 0 0
275 1 8.845000997937008 17.845140699921174 5.3511490327802225 0 0 0
279 1 12.51914466257437 18.002739065968036 5.276013555460981 0 0 0
280 1 10.599867688643661 19.551841061199127 5.391579575560923 0 0 0
283 1 15.923266982954159 17.833594264809165 5.161884630151858 0 0 0
284 1 14.306644905795451 19.657290494945094 5.157493525700433 0 0 0
139 1 15.9693169755545 17.652131516997102 1.7053209168592576 0 0 0
140 1 13.979101677707398 19.498745815078024 1.613940498808167 0 0 0
281 1 14.2898097221049 17.860666905546594 3.3627772798046727 0 0 0
282 1 15.863452981606557 19.679974598313215 3.1826679432114675 0 0 0
566 1 12.413978724574262 19.6221418334284 10.598236985433804 0 0 0
418 1 8.875680651022614 19.68182414288802 7.107221228895789 0 0 0
121 1 21.31385199018783 17.92309622467662 -0.059188782521567625 -1 0 0
265 1 -0.056466687120035886 17.85177971489623 3.505960600923406 0 0 0
287 1 19.527019939021685 17.84513257725871 5.239839438484698 0 0 0
419 1 8.947939710641348 17.838566151357824 8.835758332844877 0 0 0
143 1 19.50384998120426 17.790953573144144 1.6235494247874915 0 0 0
144 1 17.664369333050168 19.66622676262356 1.7612518923611316 0 0 0
285 1 17.588747110555516 17.83038332543307 3.456580124313804 0 0 0
286 1 19.49457254540468 19.578433083361098 3.4043757313752834 0 0 0
421 1 10.57232622867239 17.777212221073462 7.0705244011605854 0 0 0
290 1 1.789543960219572 1.7677874469285781 6.976244845344358 0 0 0
296 1 3.415294524700683 1.5987620064508556 8.899661564190016 0 0 0
315 1 1.7071021665294583 3.360282761261885 8.883327024497193 0 0 0
317 1 3.417173884622404 3.51959180721004 7.063097199258011 0 0 0
291 1 1.6928718739370388 21.26087014605132 8.849922628431354 0 -1 0
293 1 3.4692181718810544 0.005692752668386106 7.023781311307521 0 0 0
461 1 3.3367262678405987 3.395219456247144 10.611852754640834 0 0 0
303 1 12.46208689142511 0.04949559357217481 8.892872266350118 0 0 0
292 1 0.06635411053354945 1.6589357468762556 8.903147354232619 0 0 0
313 1 0.026491339966663002 3.4407512580392225 6.881512160836907 0 0 0
301 1 10.617546348270148 0.034140090171398185 7.136764015218072 0 0 0
294 1 5.303254483615003 1.8510719468012002 7.1115178274308555 0 0 0
300 1 7.028221392335988 1.8545037585419055 8.956652806352587 0 0 0
319 1 5.166600354530342 3.471936464798683 8.84202314227133 0 0 0
321 1 7.141984437699043 3.608872829800509 7.079584837883203 0 0 0
445 1 10.580079935926026 0.047825375262831926 10.586058984820639 0 0 0
438 1 5.276447359789047 1.8043625356941126 10.587251740801548 0 0 0
422 1 12.422260329060219 19.56700641400475 7.0494607515013 0 0 0
160 1 10.628410181249835 1.8453754267189624 5.298519203188642 0 0 0
183 1 12.33149657747916 3.5142827019590324 5.285669438248007 0 0 0
179 1 8.890914669434386 3.682018349593471 5.251067112792941 0 0 0
298 1 8.927442520206576 1.889144237490846 7.1282418771731635 0 0 0
302 1 12.380197769705452 1.8096532224539361 7.167201528455179 0 0 0
304 1 10.704219599330427 1.6639920670870876 8.803314284688815 0 0 0
323 1 8.776761469275659 3.5503575433175327 8.974921572849242 0 0 0
325 1 10.588736138957897 3.609659055199458 7.151704603406998 0 0 0
327 1 12.339918281923671 3.472788611797964 8.839385739846927 0 0 0
423 1 12.401828802443035 17.805381977372704 8.702906401349672 0 0 0
163 1 15.909317065982092 0.030003428315549016 5.211295455499607 0 0 0
187 1 15.898169366135694 3.451742934019183 5.250644616064797 0 0 0
305 1 14.280332514961453 -0.02104675272059671 7.201512928668843 0 0 0
306 1 15.849962910030612 1.8294810987963988 7.1798986649598815 0 0 0
308 1 14.169564309489234 1.89120361689509 8.915397175878915 0 0 0
329 1 14.141808276226254 3.5246793894191852 7.1849768516763675 0 0 0
331 1 16.009173950397788 3.6808152125328952 8.885503990998897 0 0 0
424 1 10.612047664775496 19.737416819842345 8.932111790036464 0 0 0
148 1 0.024457574578811148 1.6797724671880119 5.275626876152312 0 0 0
309 1 17.655899349196837 0.12607229781032558 7.128963707278286 0 0 0
191 1 19.646323403796565 3.372885684420464 5.0886036413127025 0 0 0
311 1 19.57978411679605 -0.08272494287304127 8.863307092287112 0 0 0
310 1 19.644131687246862 1.7045546519267962 7.067302623982213 0 0 0
312 1 17.848721154289017 1.869470621407884 8.949814019361243 0 0 0
333 1 17.915197444343022 3.440769347997017 7.0552226687851505 0 0 0
335 1 19.687532164678267 3.6375278703342704 8.864587351140282 0 0 0
314 1 1.777435974638386 5.251363085253944 7.015660769185793 0 0 0
320 1 3.375936229699961 5.3038022069745825 8.739566498592822 0 0 0
339 1 1.6345115111512292 7.067009211139447 8.851201835984707 0 0 0
341 1 3.5307260942278824 7.087219612930568 6.9459912285074275 0 0 0
316 1 -0.021752536521468538 5.125244589522916 8.639091173287024 0 0 0
337 1 -0.05087910609336982 7.058495810319817 7.132495421302867 0 0 0
420 1 7.016918899641059 19.63059871943404 8.823929006650406 0 0 0
458 1 1.731560289735215 5.3160479333891475 10.465954620997126 0 0 0
318 1 5.205298741476035 5.397172285971145 6.950626233626556 0 0 0
324 1 6.891688030091833 5.177388208184748 8.957413352266272 0 0 0
343 1 5.1377922314328845 7.130684801474942 8.830673216355022 0 0 0
345 1 7.022547794027915 7.012708584334404 7.10106924448808 0 0 0
462 1 5.151672413896906 5.335576759031923 10.591401378879649 0 0 0
489 1 6.927789589952204 7.008067167076936 10.59319218648162 0 0 0
207 1 12.497054809881654 6.974649887308503 5.220419143153268 0 0 0
184 1 10.609068619592977 5.456252309875644 5.343881728906522 0 0 0
203 1 8.940438696442223 7.101889081742871 5.285714048168622 0 0 0
322 1 8.898186214017732 5.381135620336223 7.29482594044167 0 0 0
326 1 12.455379878799818 5.2493202335157765 6.953505174944946 0 0 0
328 1 10.58105687706161 5.300276585089348 8.90243063211745 0 0 0
347 1 8.95297378999751 7.1801464699150985 8.799091251678242 0 0 0
349 1 10.64830815674411 7.0449353449237035 7.185377410402869 0 0 0
351 1 12.465416130828158 7.0785182688418935 8.85144747790825 0 0 0
417 1 7.16243047952969 17.86799635274337 7.183586875506687 0 0 0
211 1 16.094754903766983 7.041583689742113 5.300343859917714 0 0 0
188 1 14.177660317673405 5.284279441368243 5.231232943993132 0 0 0
330 1 16.084839187030987 5.187550644917825 6.971276562203797 0 0 0
332 1 14.25052694696847 5.3570966752705464 8.853197029985628 0 0 0
353 1 14.252660351636205 6.98409684940879 7.020821284155824 0 0 0
355 1 16.02654810776783 7.009828190479706 8.802663964337176 0 0 0
415 1 5.359743645080089 17.903267720911096 8.804352960510075 0 0 0
192 1 17.85586522341449 5.226079757258413 5.165723788256729 0 0 0
334 1 19.6827261404125 5.171951333373332 6.9441425337592735 0 0 0
336 1 17.9228990297105 5.209316727157689 8.83080982006565 0 0 0
357 1 17.855499296663254 6.877429203381361 6.994735452483846 0 0 0
359 1 19.701932542926436 7.096592870023923 8.828095572274576 0 0 0
414 1 5.248345505184277 19.570367153161655 7.0643941262881285 0 0 0
219 1 1.660283019533903 10.704431398449449 5.201497189166334 0 0 0
196 1 -0.05370778348201978 8.918148488704555 5.288246856995802 0 0 0
338 1 1.692550783881797 8.845955278195751 7.027990735282111 0 0 0
344 1 3.4162056206733094 8.761060900073689 8.833754957098808 0 0 0
361 1 -0.03344828159469992 10.669319765697109 7.033836111937272 0 0 0
362 1 1.6816887225748491 12.433916349081773 7.067408357421236 0 0 0
363 1 1.8516874925469 10.706247265376032 8.797606240869664 0 0 0
365 1 3.4261885072577485 10.659777349072963 7.074137884073586 0 0 0
368 1 3.511057859092118 12.59373450391668 8.755589891335799 0 0 0
340 1 21.23494153041997 8.909651576414571 8.891168525281541 -1 0 0
204 1 7.098043870570965 8.894481632755662 5.219160001172912 0 0 0
342 1 5.2331053274195 8.824866291749753 6.932667683323915 0 0 0
348 1 7.013121230787774 8.845090482026515 8.940119714111503 0 0 0
366 1 5.313937778679957 12.510247544264157 7.084054077408901 0 0 0
367 1 5.16782859646579 10.704905313367659 8.947347172989327 0 0 0
369 1 6.914317950591085 10.650538226763096 7.083425314304082 0 0 0
372 1 7.067733274960922 12.393288539600082 8.743174221131424 0 0 0
510 1 5.195063137281825 12.522881438439859 10.530595645225487 0 0 0
231 1 12.551705228673722 10.6250115100216 5.287504741360463 0 0 0
346 1 8.710087372564587 8.84202308960877 7.0691362821987225 0 0 0
350 1 12.433352777561524 8.731914887766683 6.9039700440101095 0 0 0
352 1 10.698505185341432 8.854215040592829 8.842923309788985 0 0 0
370 1 8.903627885258349 12.203034282656859 6.92713254816025 0 0 0
371 1 8.768542641960835 10.554072280280486 8.708283794542197 0 0 0
373 1 10.593306180052906 10.47007125855001 6.934328994366069 0 0 0
374 1 12.415710151669764 12.28223923476226 6.904772544795168 0 0 0
375 1 12.501417833339172 10.61333746942692 8.845292729474696 0 0 0
376 1 10.599214456686314 12.322294514934136 8.717807299470431 0 0 0
295 1 5.334368828098139 0.02689355762264256 8.784352218559262 0 0 0
518 1 12.422964241121608 12.279679489691928 10.555467292802462 0 0 0
235 1 16.130290844499527 10.550319962154317 5.307584161680597 0 0 0
236 1 14.325646741937257 12.42945911270871 5.194864405348527 0 0 0
212 1 14.342882691684729 8.793936783832022 5.240939409040166 0 0 0
354 1 15.976916500987675 8.767645622609422 7.098641940234007 0 0 0
356 1 14.247675272175405 8.700599920077188 8.805240816731512 0 0 0
377 1 14.226475064946923 10.632157058861807 7.161314956579306 0 0 0
378 1 16.127549379883085 12.426281873407657 7.064338493560711 0 0 0
379 1 16.14060257656233 10.552908271882249 8.819058409766477 0 0 0
380 1 14.103777695688649 12.402326731961482 8.723569911875442 0 0 0
498 1 16.035585182710918 8.648979630211988 10.58068783303744 0 0 0
521 1 14.269152802369462 10.525827210776537 10.536113634276159 0 0 0
220 1 -0.07666509292540269 12.311684951239828 5.0847340946910355 0 0 0
240 1 17.80625366450316 12.45102749441515 5.290925552423231 0 0 0
216 1 17.76312445109071 8.817602675680526 5.227912994056086 0 0 0
364 1 -0.015522199202152365 12.32718856319574 9.014173164859898 0 0 0
239 1 19.3777967195239 10.596925623573421 5.176003556956779 0 0 0
358 1 19.591367934393226 8.92654834259606 7.056883065568196 0 0 0
360 1 17.81366170109451 8.70320902061042 8.774579941464761 0 0 0
381 1 17.74466512059135 10.643170214840085 7.006922996620474 0 0 0
382 1 19.621116610241522 12.27353315653396 7.080839501372001 0 0 0
383 1 19.63307905381749 10.560553095668562 8.87446087436944 0 0 0
384 1 17.868872278184377 12.41010067287556 8.769050830202122 0 0 0
297 1 7.270002146703018 0.04266925820699896 7.105991794482052 0 0 0
386 1 1.6805618079606688 16.04958220975203 7.03804670935038 0 0 0
387 1 1.5808265697035033 14.341146963971983 8.84276739016606 0 0 0
389 1 3.4814315905837123 14.236450739352073 6.9173481655817275 0 0 0
392 1 3.4385794217315673 15.97038293664268 8.750238229458654 0 0 0
385 1 21.32380570248838 14.02275938732617 7.111573363328303 -1 0 0
557 1 3.4103608102659586 17.896370211522367 10.566309704502464 0 0 0
252 1 7.1193167375298785 15.985546405140282 5.467067184192399 0 0 0
247 1 5.449263337100442 14.142693018522731 5.359359191128475 0 0 0
390 1 5.4265726520400515 16.11802964807915 6.936889627734502 0 0 0
391 1 5.24525476849946 14.100778207908178 8.786477326022686 0 0 0
393 1 7.124661518240896 13.99600909274259 7.028007247767567 0 0 0
396 1 7.015227886241174 15.97800303173378 8.694749378599743 0 0 0
537 1 7.104706315217385 13.996385662318811 10.455107457996043 0 0 0
534 1 5.25655323601046 16.19812277822478 10.547456841917482 0 0 0
255 1 12.486584726129323 14.056153323453719 5.353120876733449 0 0 0
394 1 8.846708621101945 15.848741258085113 7.099654029341657 0 0 0
395 1 8.856242376934146 14.095323799699067 8.790123838856644 0 0 0
397 1 10.691122110826496 14.096089020327007 6.904513342224853 0 0 0
398 1 12.32837125931459 16.134521994703746 6.85339059480453 0 0 0
399 1 12.388823122696488 14.265922056274205 8.70117321114289 0 0 0
400 1 10.65241304696526 15.964081902048578 8.653105383258708 0 0 0
541 1 10.723388760722502 14.11816674206961 10.485299476197328 0 0 0
538 1 8.81050482478895 15.823631204163101 10.517219199208814 0 0 0
260 1 14.116217789683638 16.035107099230217 5.273159174186542 0 0 0
401 1 14.170798784182708 14.192148853976953 6.969779510975019 0 0 0
402 1 15.947706209519753 15.81046140103987 6.963738420906745 0 0 0
403 1 15.991205578852584 14.27032034635543 8.907480832434748 0 0 0
404 1 14.216415475423625 16.024759377075675 8.869131339805113 0 0 0
244 1 -0.03170651608625974 16.03305509613279 5.354615636761081 0 0 0
263 1 19.526673404906013 14.144422145249173 5.252917445941634 0 0 0
388 1 21.2743452603368 16.07219868140372 8.81639794114138 -1 0 0
405 1 17.87211333619301 14.238106819307957 7.125618870749167 0 0 0
406 1 19.61401873260612 16.008221016646417 6.987959460097087 0 0 0
407 1 19.718326830776192 14.226782507747801 8.784083979983304 0 0 0
408 1 17.813723044364018 16.01213763110026 8.666486311558652 0 0 0
437 1 3.7207287512990046 21.301164582355767 10.601913643904533 0 -1 0
289 1 21.334609998697406 21.302320983256692 7.095492322407985 -1 -1 0
416 1 3.6853079447094097 19.602126172510204 8.851845843238214 0 0 0
554 1 1.6500497812847075 19.449940305957945 10.539537417818215 0 0 0
411 1 1.7138683720818377 17.893042282487983 8.667851646393848 0 0 0
410 1 1.6545527989287119 19.5832256481291 6.940796929143811 0 0 0
413 1 3.51032867902141 17.812577886832656 6.967358648314463 0 0 0
450 1 15.97457430289503 1.7164840935588448 10.560978129459144 0 0 0
477 1 17.83083759571909 3.537584274036258 10.623095438095303 0 0 0
454 1 19.563322430620275 1.6339744727688592 10.631112284441393 0 0 0
453 1 17.692795673107476 -0.07867365569865688 10.495368194741337 0 0 0
493 1 10.58356854338343 6.99434649699411 10.629548860891024 0 0 0
501 1 17.867098877352134 6.927337770978432 10.489452365054737 0 0 0
482 1 1.7307345638689695 8.794548295282507 10.620241136941695 0 0 0
506 1 1.7884208178064571 12.387685788194027 10.556673416909879 0 0 0
490 1 8.914184757562847 8.79603710744685 10.602959935713828 0 0 0
514 1 8.913497141346339 12.313104252398091 10.49295638664719 0 0 0
517 1 10.605259855568699 10.58477828796048 10.340079741014625 0 0 0
522 1 15.969907477306139 12.340668256622138 10.573571228259697 0 0 0
526 1 19.663777410204908 12.424505243851758 10.613303748409034 0 0 0
525 1 17.772520940557122 10.594812988130618 10.516027595421546 0 0 0
530 1 1.6655068211192272 16.060796828894773 10.537050402324676 0 0 0
533 1 3.512575459620607 14.370949791795187 10.465140806835874 0 0 0
130 1 8.935711579801747 19.5382264954306 0.05985121352134115 0 0 0
133 1 10.520228785937762 17.787155840284427 0.08160628852580487 0 0 0
542 1 12.179499259883688 15.980574752113247 10.429161592550923 0 0 0
545 1 14.085501734820241 14.113797449665725 10.431556632187887 0 0 0
549 1 17.758524841359154 14.260635502967013 10.526848424708376 0 0 0
561 1 7.175968744390826 17.847151608515468 10.54090348112366 0 0 0
562 1 8.866922515664994 19.716526491229033 10.601551647736501 0 0 0
10 1 9.025707163216161 1.7305757807373376 -0.011993256994351498 0 0 0
13 1 10.626554360104336 -0.02874535985288331 -0.02253226777306594 0 0 0
26 1 1.8652922390788875 5.292619063793521 -0.052418806893740566 0 0 0
49 1 21.344354104156032 6.96003291350932 0.057419517738260595 -1 0 0
53 1 3.521887605569609 7.0447422647131965 -0.05103949800631824 0 0 0
126 1 5.293293649783834 19.550393933910364 0.09667462167782048 0 0 0
34 1 8.928380860998754 5.312109950021894 0.026474637606689555 0 0 0
74 1 1.6921527013462359 12.450460581255776 -0.0012717214600854732 0 0 0
54 1 5.378768360912509 8.997438597538084 -0.030446051851932054 0 0 0
82 1 8.844232349350158 12.427596371880217 0.00533191030945801 0 0 0
85 1 10.534926649818738 10.742218314327387 -0.032237269093919 0 0 0
90 1 15.961819591978669 12.287899127093448 -0.07456526449125533 0 0 0
94 1 19.53824904920107 12.42091496539973 0.0883825238477769 0 0 0
98 1 1.7369968596564174 16.214096759006416 -0.022027851486150496 0 0 0
125 1 3.472139042768057 17.79850364280984 0.05268140945907618 0 0 0
105 1 7.084029385964083 14.157050292168949 0.08199541951533718 0 0 0
106 1 8.708769518792153 16.03105705238537 0.05256833320972021 0 0 0
109 1 10.515950022471225 14.248002831073814 -0.0005088610676082794 0 0 0
110 1 12.369861365065367 15.946050053674389 -0.007343543173981004 0 0 0
122 1 1.8594768481251902 19.627256927990757 0.06211362605738202 0 0 0