LAMMPS data file via write_data, version 29 Oct 2020, timestep = 300000

864 atoms
1 atom types

-0.5938557327789944 21.857855732779953 xlo xhi
-0.5938557327789944 21.857855732779953 ylo yhi
-0.5938557327789944 21.857855732779953 zlo zhi

Masses

1 58.933

Atoms # atomic

842 1 0.6661745527770739 1.6109422630560228 4.063884023869516 1 -1 2
684 1 3.9028935660124304 2.36179368750902 5.692946231511713 0 2 -1
390 1 2.8638006095956245 1.6881477653338877 3.1083989345380845 -2 3 0
829 1 -0.43715070973762005 4.823336684084716 3.9341073255990286 0 1 3
315 1 3.407947549913384 4.482550440726459 3.957571096053539 1 0 3
559 1 3.2410635561948746 1.6212255794982253 0.7656755022155777 1 1 -2
381 1 4.2061201241236805 21.118750130506697 -0.07539745920716079 -1 -1 -1
503 1 0.6339022060409856 2.440400947477421 -0.2657048355656016 -1 0 -1
178 1 21.599312489374917 7.112430538610017 9.045279403900143 -1 -1 0
547 1 4.97650647454533 12.36335038485414 1.0364531131754093 1 1 -1
20 1 5.36504342077373 0.6811506357616606 1.891686979557686 1 -3 -2
627 1 7.5140923385048275 1.7339523240962849 5.288507554497987 -2 0 1
207 1 9.965064772255136 4.304477606522645 4.009909755739999 0 -1 -2
357 1 6.941836640315067 4.096486809643446 2.2763265487845663 1 -2 1
537 1 6.509461200394626 2.415888292802169 0.4529772644912715 0 3 -1
657 1 8.31634741494215 2.0838585821265703 2.931731792455809 -1 2 0
704 1 9.52059744549656 -0.12273675315378157 -0.40955774021489877 0 2 2
329 1 5.545741443371795 1.660603146221491 3.9559240979788264 -1 -1 0
681 1 12.60269053409975 4.521476049619069 2.4742134585421653 -2 0 0
635 1 13.186602137332219 2.545164830707542 0.7079581775698671 0 0 1
185 1 8.392074410097024 21.53031224287908 4.634001509502404 2 -1 1
67 1 11.305932491620965 1.334190884604786 1.8500773721873385 5 1 1
711 1 10.004616188366812 1.7180768852898178 4.229292980225548 0 0 0
697 1 12.176711183900757 0.7563676960588452 -0.2358503515094939 1 -1 2
782 1 16.62064707242328 17.345309232514673 7.253252642580166 2 0 0
722 1 11.616556205270333 21.450445832121485 1.7975718744826805 -1 -1 -2
670 1 15.042335943394974 17.343011849780908 0.30400872422578007 -2 0 -2
683 1 19.27407678130941 7.675345763057306 9.320216478939923 0 1 -4
788 1 15.460976330635312 3.0605687671956425 3.3614538346123095 4 2 2
772 1 14.376241181253453 0.7781964427302177 3.192580145305604 0 -3 3
141 1 14.070222628146448 -0.29134649414858044 1.0785311495096572 2 1 0
401 1 12.141653969164171 -0.08544169551781344 4.3600117684078405 0 -1 -2
89 1 15.652554281607728 1.5477723476118737 1.2519215229883538 1 2 1
423 1 5.9355518194168075 20.44956509029208 1.3280982355807633 1 0 -1
351 1 18.814002202533917 3.307545774468088 4.25249915452278 -4 -2 0
56 1 17.502438063826084 2.736217135690783 1.7079768202642942 1 2 -2
490 1 20.377260268976563 3.323961022418762 0.9962011918735632 -1 -2 0
21 1 -0.44537232269540417 4.403725435196532 1.8406221290899896 1 -1 -3
93 1 21.118579145105723 2.8976470242260977 3.6325566153452833 -1 0 0
162 1 17.67322666368818 0.6113350882978095 0.31022038628922366 -1 0 -1
44 1 19.359822019829984 4.747649501556085 2.553609948497278 -1 3 0
732 1 21.006258767004567 -0.3154820157145778 2.933597909397704 0 0 0
94 1 19.490168544368018 1.8441574768360693 2.371888567046648 0 -1 1
347 1 16.72112036713225 1.2317127749463346 3.982966894114216 2 2 0
838 1 3.4382567826190096 6.441111768432375 3.0654226558166995 -2 -2 1
678 1 1.5622943781556708 6.047950645764695 5.371009332750348 -1 0 -1
538 1 0.7352963575683948 5.982632174190441 2.71539453548857 -1 1 -2
441 1 5.525212612411034 5.35902370997554 3.9899727679235584 -1 0 3
103 1 -0.3144208923881057 8.559872234997817 0.532230556568857 1 0 2
504 1 5.09770468587012 5.531225653069314 1.5437156573522097 2 -2 2
34 1 4.811121700384767 3.26463643152381 2.445967506581798 0 1 0
180 1 1.6231364609669683 8.141288969511466 4.305954712171527 -1 -2 -1
244 1 8.354723137380757 5.9366585651899175 3.04615967920038 1 2 -2
172 1 7.514162461636094 4.188890359105149 4.575524072468304 1 -2 2
208 1 7.462529487584739 6.553007342639113 4.995225668711152 -2 2 0
259 1 7.025385852624774 6.1125308018226585 0.7976593356217712 1 -1 -2
844 1 15.007824964902277 14.340890872743689 0.4430204192367617 1 -1 2
420 1 11.107092415811373 16.617888092544725 9.712437068797005 2 1 0
5 1 6.1367444209060995 7.375395790643808 3.211868651464503 -1 0 2
48 1 8.692317800108288 5.278016810959036 6.75692522858784 -1 2 1
442 1 8.16081918873633 9.060875206817594 4.571211971770956 1 -1 -1
14 1 9.416263709129566 7.189069391681313 1.0888697755507886 2 -1 -1
266 1 10.40756410881957 3.599427478018967 1.8269130627620438 -1 3 -3
49 1 11.118417463792639 6.541578439072149 2.200433409571094 2 -3 0
151 1 11.460275784301718 6.342172979889491 4.534460525354936 1 1 -1
648 1 14.741688372890025 4.542847367356955 1.6263198200938591 1 -1 2
169 1 12.32907720873938 8.956020449846841 2.447981506109586 0 0 0
299 1 12.018678742158317 5.069896914731678 0.2570748182588112 0 -1 1
796 1 10.06553692758512 8.3302419007817 3.4111048524097054 0 1 1
189 1 14.22966898457325 6.512995016829413 0.06197420092430228 1 -2 0
597 1 11.959381147977561 15.176316325167559 -0.17156803633647177 1 -1 1
694 1 13.619922610457378 6.862108232422249 2.776898367417814 -3 0 0
393 1 17.315646703305532 4.6695165587430045 0.16876200592021962 -2 -2 0
212 1 16.48549349517875 9.486887664266291 -0.12917467944315564 0 -2 2
100 1 18.08179080347175 20.183056391853924 -0.352629412328648 -2 -1 -3
340 1 15.210377932942245 7.21393058401872 4.4117133850184285 1 0 -1
745 1 17.520160318828527 8.291113329087421 4.421946608356421 0 1 2
759 1 4.150160523475828 7.365070653244789 0.35076027935817644 1 0 1
407 1 20.66670383044282 6.889964361881889 1.8150485744664144 2 0 2
65 1 13.067528679704976 12.917981636194325 -0.5321517683495196 2 -1 -2
77 1 16.0606661506822 7.244829880268166 1.8480532971495007 0 2 -1
330 1 21.515500311584102 7.151870181068114 4.23721264035005 -2 1 1
24 1 19.325688695747747 7.022043396679836 3.6212043994128216 -1 -2 2
731 1 16.801409596337646 5.446741738624612 2.93697655473636 -1 -1 3
28 1 20.262954135966552 8.974655137510549 5.540438287718008 -3 -2 -1
31 1 19.566665352723724 5.365534507234403 5.017374356003657 -1 -1 0
236 1 18.303649136661665 6.914454065018262 0.7476313362829154 -1 -1 1
484 1 1.6739680981150618 8.344341131791294 1.8445466317360055 2 3 0
726 1 1.8581513430452992 10.402464210927599 3.4328691287516415 -1 0 -1
629 1 3.887346202504709 12.551533735386494 7.077207634441649 0 1 0
69 1 0.7775136683575656 10.799202170928076 1.0203179101539142 1 -2 -2
835 1 -0.43861270155152 9.383573959194727 3.7862253040901956 -2 2 -1
289 1 2.6592331934769873 12.320080882074999 3.5810348842884903 2 -1 1
99 1 1.9677023946799053 11.592139668389667 5.841018325559689 3 2 -3
747 1 21.408003873278737 8.99897215841006 9.792932339438044 2 1 1
43 1 1.5518117664535702 -0.04213887095461544 9.107885472002634 -1 -1 0
349 1 3.390687446005725 10.139245516926726 0.5501911050860455 0 -1 -2
302 1 5.545111421056532 8.917544788257976 1.8466700011002515 1 -1 2
247 1 4.87207820240511 11.002635383504186 2.76806568830118 -1 0 3
419 1 6.229106215085827 8.5645031835067 6.539314818838229 -2 0 4
541 1 5.241128572879385 12.765145503071986 4.687880673396455 2 0 2
71 1 3.4654974939969243 8.68960539151188 2.80926627347786 0 -2 0
468 1 7.091060330182887 11.033081619287541 1.512197379392326 2 0 -1
392 1 9.783453560978039 11.73134484894583 5.781000097912353 0 1 0
12 1 7.260230046403929 11.031295760565687 3.7289701407569638 0 -1 -2
528 1 5.578307503020314 9.043456126212698 4.408629441773894 1 -1 0
92 1 7.66107865673445 13.624571496991287 5.027256512522919 0 -1 0
793 1 10.703315191804275 9.172568597797433 5.371250813036496 2 1 1
132 1 7.920876421131156 8.616265530689883 2.2239638484604 0 0 0
126 1 9.37292211393455 10.953403243808882 2.9088355010644964 0 0 0
506 1 11.591433182160312 12.71298993591306 1.846200687644374 0 0 0
774 1 6.785449098331523 13.23453386084905 -0.10175485789333699 -2 -1 -1
190 1 10.74267560598045 10.37405606469796 0.9115247059885214 3 1 -2
287 1 10.974864342767885 13.148405938086993 4.640658816465912 3 3 0
626 1 12.848767245045554 10.39190925274066 0.23876398991122705 -1 2 -2
568 1 14.450624883346755 9.315333914679131 0.9183929818223444 0 3 1
729 1 11.65323522717758 10.776833384959831 3.8706701537523456 -2 -4 2
112 1 17.587477169372043 10.975450978673361 4.321872422555587 -2 -1 -1
430 1 15.587918232821107 12.285532748929418 4.745457979424146 0 2 -1
301 1 13.76358804350141 11.284437193256776 2.4447596234116657 -4 1 -2
775 1 20.124904645017605 11.316934992906484 4.174736597918945 -2 3 1
831 1 15.341906257471193 11.61140673047054 0.1766664590750141 2 -1 1
206 1 -0.08651127804539327 11.826821442674921 3.5668464929025507 -1 1 1
54 1 19.121671783596895 12.269988671339856 2.122274123524739 -1 1 0
389 1 21.090163922777 11.069817722228203 1.0378359139926672 -1 0 0
707 1 17.697333169036217 9.252662117516927 2.0126606561808997 2 2 0
570 1 18.31833014091103 11.051750927837587 0.25107121594665216 0 -2 2
179 1 0.7237235148202101 13.570755014667881 5.162416426430063 0 1 0
613 1 16.226779039798473 11.625477184604144 2.4045499043934395 -2 -2 2
452 1 8.579627876032106 9.594021533319872 0.22162897112640179 1 0 1
26 1 19.64238162457292 14.2573259252729 5.826899013251404 -1 -3 0
662 1 0.9068953513716622 13.466472019980959 2.4358045202219136 -1 4 0
581 1 2.616423012876269 12.471067157145505 1.1590360851470674 -1 -2 0
95 1 -0.4948588640521123 15.193879762016156 2.507624095552422 0 1 -2
479 1 0.172700039902274 17.343317874120913 3.516023945129521 1 -2 -1
265 1 2.9336825411348175 14.297024240377638 5.080397002382093 -1 1 -2
318 1 1.3827716230364175 17.76095838352858 1.3624010698770566 0 0 1
366 1 1.9793127306128468 15.639002572713459 3.2683208540638002 -1 1 1
855 1 1.8852108729197128 15.382477765928142 0.9478802017185113 3 3 1
290 1 15.014845310386617 18.485450580320617 8.526539145173246 0 -1 -1
534 1 3.5605331084311453 14.417707550795848 2.7362379641716967 -1 5 -3
596 1 3.5311558540198424 17.004377433645722 2.0242832757026883 1 0 3
566 1 7.16907797571321 -0.1644975492583438 0.4356365200468746 0 3 2
777 1 3.7026335362033382 16.35048496907295 4.5357682675161355 0 -1 2
519 1 6.766685844344465 15.185436941205936 7.528793060214678 1 1 1
296 1 8.859772768087689 14.14478015696834 0.305277477505031 -1 0 -4
362 1 7.652871330084102 17.385422762935434 3.8523428641058617 -5 -1 0
314 1 6.7513200867425445 13.763010325170608 2.5410891025429017 -3 2 0
562 1 4.277339888664194 15.185864201237981 6.629929932666939 1 -3 -2
269 1 5.688377371829156 15.048829953473795 4.394915006458637 1 1 3
300 1 10.486561644599487 15.100836102553792 1.7911049308169442 -3 -1 -1
535 1 8.825005689872286 13.25501202856182 3.321015703730935 0 2 1
652 1 7.864906508357265 15.554847594954264 2.0224619364272187 1 2 0
291 1 13.122493845450068 14.22317346125477 1.8756202281578656 -1 0 0
542 1 11.884562025025494 15.420884748510012 3.2932016992551483 2 1 1
512 1 11.728976480307715 18.257559350098873 3.3700912503628646 0 0 1
833 1 9.612395066806316 17.323397943840526 2.3404168705342903 3 1 2
139 1 2.645548566009258 5.667069866272428 1.0446276928534544 1 1 -1
447 1 15.620931896129083 13.715988053526514 2.7852148178768656 -2 -3 -3
524 1 13.057847553596039 13.058090505973775 4.197827368070502 -2 0 0
267 1 12.755225914165017 17.183620960859244 1.2265441327295372 0 1 0
63 1 17.118645971280966 13.269791686849423 0.8786299809096509 0 3 0
573 1 14.639843017213648 14.756967697111161 5.108421952629087 -1 -2 2
123 1 14.490094926444284 16.035128949379228 2.4860210258090487 -3 -1 -3
32 1 17.069153679451677 17.388480394075863 2.9904447082658594 -3 -1 2
628 1 17.91918864884501 13.505089827714007 4.473184992531285 -2 -5 -1
64 1 9.266175169819677 1.9480491980701817 0.833848772943889 -1 0 0
653 1 16.67710882427946 15.78357889524613 1.180329212911007 0 3 2
602 1 21.075161977794245 15.909829798829819 0.3680665913727945 0 0 2
186 1 20.839693310527792 13.62553604371782 0.6319509366351341 -2 -1 1
710 1 20.511632071886453 13.815748889023086 3.6907750990453403 1 1 -1
593 1 1.827929132825378 3.6123103023929604 2.031269680313679 2 3 1
843 1 19.316457211745426 15.65621408399123 2.1258577927354576 1 -1 0
624 1 21.832866486138403 15.528669792276318 4.963774325791006 0 -1 4
536 1 0.6725495335692169 0.74342198869307 1.8504366729382786 0 2 2
200 1 5.581216515389746 16.76086216022052 -0.508102740839616 -1 1 0
717 1 0.8166067878642433 21.297546752540576 3.105403867839079 1 1 0
417 1 -0.2825456604058322 21.731004773924152 0.382342635726185 4 -2 -1
91 1 -0.1335653402233476 -0.31163537500316335 5.068298459820576 -1 -1 2
565 1 1.5861071505441386 19.488044996611453 -0.573848181999512 1 1 0
496 1 1.9806333340642173 18.78144134075443 3.4773897573684707 -1 -2 0
363 1 2.7980707505171676 -0.591879043274055 1.6480313516375826 1 3 0
505 1 8.695544320268342 4.146072329068233 0.4346144920560735 -1 0 1
328 1 19.356476317623997 17.519831874905435 3.9293517261861046 0 0 1
454 1 20.723052823865658 19.855878660810582 3.0886252733014277 -1 -2 -1
740 1 2.0104924108869784 0.0008114074599823162 -0.38107383981636267 2 -2 2
359 1 17.77011688114094 17.36813694993151 5.329291524480136 -3 2 0
82 1 3.5406098316870933 19.33024016575759 1.1972601872125508 2 0 1
589 1 3.260773162130382 -0.5746380894015741 3.857322868186575 5 1 -2
183 1 7.161937582415412 0.06192218948982853 2.802517137218277 3 -1 -1
591 1 5.685929443161454 16.148613917520038 2.5333393115711003 -3 -1 -1
721 1 7.253276692709297 17.898556912043457 1.3668805258932886 0 -1 -1
229 1 8.137869687716083 18.066927216056747 6.490846074350233 2 -1 -1
501 1 4.454397646870025 18.657060177315298 4.585479878421554 4 2 1
676 1 4.43977248213792 20.253392777289296 3.2004348224047003 0 1 -1
104 1 7.63034578180304 20.15246690436958 2.9286930076094655 1 -1 3
471 1 9.974510609885867 19.659541670008256 1.8408886732823118 -1 1 -1
446 1 10.595459970768445 17.081772462648665 0.3618870889016874 0 -3 0
332 1 7.831312734577072 16.54639000505322 -0.4109496006147909 -2 1 1
738 1 6.0528534083498595 8.600002912515022 9.542807694690126 2 -1 -1
225 1 9.232635386231372 -0.28784080902504205 2.237118455033175 0 1 2
746 1 9.3140686024311 18.866836286127263 3.9479965810455324 1 -1 0
370 1 12.65202477536732 20.061952319141458 5.274035154929187 2 1 -1
847 1 10.950379912939294 12.880057470611145 -0.43373022105218106 4 2 1
561 1 12.040881528248686 7.760192440980893 -0.12186096844768252 0 0 0
199 1 12.817413895933022 19.467962842795306 1.1611203628679863 0 -1 0
533 1 15.226434403940035 19.64478006702165 1.224358371992289 2 -3 -1
739 1 17.412668159724586 18.031419951802505 0.4780802195484539 1 0 1
502 1 13.999479992318367 18.071036943890157 3.5129822776794333 1 0 1
184 1 19.618543437153342 18.465612192887374 -0.11093615033374082 -2 -1 3
109 1 13.295816512608198 20.60472478291185 3.1562457489268176 2 1 -1
415 1 20.29279505185916 0.604770339314401 0.46375976331535584 0 0 -1
765 1 11.334028706053264 20.947246923719465 -0.5008171263703912 0 -1 2
295 1 21.237397690254376 21.16408552673341 10.24467893758816 1 -2 -4
824 1 -0.3533223515194919 19.497981917659178 1.2336581101941406 3 1 2
672 1 18.706056697445028 -0.18618029571442296 2.850214849128018 0 -3 0
724 1 20.240893074631778 17.703842269891798 1.8873188204059232 0 0 1
654 1 15.826367265200965 21.37749806856181 2.5041029388098375 -1 1 2
164 1 19.96697726673994 20.890469538881486 0.8738089423341573 -3 0 0
580 1 17.852968198152173 19.87949279843001 2.3555826066051786 0 0 0
546 1 18.87828338888095 16.180670251974632 0.03108807694697513 1 2 2
382 1 3.8297152564728156 2.1739812383487056 8.50756297541105 1 2 1
522 1 0.9699955625339942 2.577450992421612 8.616712877088366 -2 -1 3
464 1 2.063405636021837 1.0328679266333323 6.231597220224524 -1 0 0
750 1 1.1516322069184577 3.6373142355351797 5.339204052460768 -1 5 -1
224 1 18.373173572148094 19.13263813248507 6.993512623878415 0 -1 3
167 1 19.35524258481791 8.883105709826452 -0.28503902356499694 1 -1 -1
609 1 4.589574964304295 0.49341432234757554 6.618050436990977 -2 2 0
595 1 0.33096305443267693 5.3979806675592235 10.204886363551967 0 -1 2
303 1 6.020846332928881 2.4901912657642162 6.868018423874592 2 0 -1
113 1 5.5391787463983935 -0.5372956694219136 4.293495857860586 -1 1 -2
87 1 8.50350784764945 1.774983609884563 8.408014057228456 0 0 0
418 1 6.349867326938566 0.8636308194161311 8.787771516339737 1 -1 2
270 1 6.661960734212817 2.99404937433708 9.46585358067499 1 -1 1
294 1 8.208847652653587 21.450568872444457 8.902334259997895 2 0 0
671 1 7.485371159325938 19.40028744121272 9.512012283065776 0 -2 0
134 1 8.524411896889017 0.3855677199070138 6.79821755322658 -3 1 -2
673 1 9.438496990993738 2.7372698058175264 6.403071764850809 -1 0 1
550 1 12.991965774933385 2.3068875378920355 8.10515118797093 2 -3 -3
540 1 10.138196994617886 20.794504165388936 8.82618415731128 -2 -3 -1
173 1 10.879383714291077 0.8852041712658747 8.316185917683567 0 -2 1
511 1 10.731577263454561 20.58729031467056 3.8708062422140808 -1 0 -2
39 1 11.616196505874008 1.7585625648446777 6.230814816842882 -1 2 -1
188 1 12.44740733589506 2.1862120686851534 3.744201478638903 0 0 2
753 1 13.976635493648725 5.228209157731566 4.431749718318714 0 2 0
473 1 12.961484378256289 -0.41815994612217566 6.907893623907195 0 0 -1
345 1 14.71550485643514 21.51131629503691 4.682506633520827 -1 -2 -1
848 1 13.92095378594601 1.3293073221691314 5.532296023944605 -1 0 0
187 1 16.50228633427957 3.288377389889861 5.1554628031820044 -1 -2 1
692 1 16.251913918323314 0.2734433291371613 6.849594477053462 4 2 0
690 1 20.071647118340866 1.0750049769423833 4.586317629440209 1 0 1
802 1 21.738644102021055 2.2176945148262845 6.166240052161648 -2 2 4
342 1 -0.19780163232927972 0.3392355093321682 7.38536220715552 1 2 1
853 1 17.86550872840001 1.6555536057346054 6.011476422195887 2 3 3
80 1 19.99575669401439 2.4522670755491123 7.478800264021258 -2 1 2
846 1 17.889707338414926 0.7882516945996814 8.391769475488328 -2 0 0
558 1 16.658600450230274 2.885719801458988 7.760879531973014 0 3 2
493 1 18.48098020521589 4.075076120306529 6.539677217069812 -1 1 1
279 1 20.738481003069523 0.6857501885654993 9.133793556795272 0 -1 0
743 1 2.8318244654437152 6.865782903597771 7.57393884790689 1 -3 2
839 1 2.7866189984014933 9.216655535178731 6.017363344607795 0 1 1
789 1 0.4681595452022995 5.16215826609143 7.894822770434287 2 -3 2
155 1 2.643923680616298 4.042808798692005 9.500615816738582 0 -1 -1
571 1 2.635939865269783 4.230172716829751 7.027294580942161 2 -1 -1
599 1 1.139104177666975 8.586366761012618 8.007172725528791 1 2 0
227 1 3.614860048612373 5.908352666168858 9.668096528345442 0 -1 0
557 1 21.1081501054502 4.33092648830139 8.784012843835757 3 3 4
331 1 21.556086791700526 6.96771575771689 6.760225980608662 1 3 1
431 1 20.025191260453216 0.03762473961958668 7.161155337710577 0 -1 4
38 1 6.410143383366297 5.236287911307672 6.784612123809949 -3 -2 0
823 1 13.121169429250187 0.1560227132906702 9.706338031662607 0 2 -1
57 1 5.183813332724675 3.9909875640498322 8.415420903664726 1 2 1
849 1 4.597458091314583 4.283474053160006 5.87041602526523 0 0 3
474 1 8.143615477940633 4.514581046891125 8.859364412510967 1 2 0
625 1 6.081359330462864 6.031744736179591 9.25418963900863 1 -1 1
308 1 5.107448538050307 7.327840386939069 7.873616554130866 3 2 -1
230 1 6.650153791172015 10.779369861573624 8.327966912219713 0 1 0
156 1 4.034608531077847 7.090185214669826 5.338919869193069 0 0 -1
616 1 2.8312884663883344 21.503393271581686 7.673065658179212 1 -1 1
168 1 7.558769149077676 7.184172951719973 7.954035254888208 5 1 1
736 1 16.084831198563798 20.000024925368187 6.2092643697716055 -1 1 1
137 1 8.419815538502437 9.064519999929445 9.397642683222227 -1 0 -3
476 1 10.549798344816088 3.2596837209975593 8.385681197285018 -1 0 -1
350 1 9.980333525668073 7.533198076500636 7.560136275107682 0 4 0
117 1 9.502493869536975 6.585815606362692 9.436761931340476 1 2 -2
203 1 10.884151188540153 5.311606165028889 6.9581186645884525 -1 3 -3
397 1 14.281860393599588 6.671643608162008 6.671603355904313 0 0 -1
800 1 17.372371220795305 19.86760756990925 8.91356139688151 -2 -1 6
601 1 14.680952896628265 1.0365565442203213 8.252208952518618 0 -1 -1
579 1 14.583120104254727 3.709453019900116 6.329729705407069 -2 -2 0
133 1 15.824488726097602 5.575925946523682 8.433717878078303 -1 1 -2
590 1 13.13405881286461 8.39079914023439 4.592910721761044 -1 0 -3
600 1 12.334629782784132 3.8128715324648574 5.777662844196177 1 -2 1
98 1 16.274263843758465 7.557968811651973 6.232404175190871 1 0 1
549 1 16.348795347898694 5.381158095812782 5.365026477260287 2 -2 1
105 1 14.854479408459976 7.38668124360115 8.799926884866128 -1 1 1
790 1 0.6040608766889912 12.929161525193164 -0.2680532107425938 1 -1 -1
634 1 17.94334942561724 5.324556072447442 9.259925432667922 2 0 2
154 1 18.922985081305022 3.196604085987389 9.360221822747013 0 1 1
785 1 16.340993554797016 -0.496565699751633 9.867822822324701 -3 2 2
10 1 17.24813923565646 7.869054908810476 8.306015739898369 -2 2 -1
507 1 21.4627264018472 4.661014206097149 6.194204678264436 -3 0 -1
246 1 20.656002579109348 8.942553823183612 7.710348630095538 0 2 1
144 1 19.451227481308003 5.664690095647264 7.660539467059744 -1 1 1
107 1 18.544470111952105 7.1651498123313635 6.325670868685662 -2 1 -1
256 1 0.5860168530500283 10.406955919383854 10.029094406377963 -1 -2 -2
539 1 1.283165678359672 7.911781195823872 10.46583045361524 3 -3 2
808 1 19.539467340012422 5.154456070105329 -0.12138375366263765 -1 2 1
527 1 3.821313407363392 10.804883353756338 4.825702425599102 0 -2 -1
174 1 21.022564198136525 14.546152907206116 10.347053341800448 -1 -1 1
587 1 3.7956164079691543 8.581000325550324 9.277975702871725 0 -2 0
606 1 0.1627100411922261 9.391898711840009 6.012432278939339 -1 1 2
425 1 14.891082746231268 20.969493961170595 8.215401505609272 2 2 -3
114 1 19.52660979942085 19.404260015080038 9.831513952096106 -2 0 3
551 1 6.391408962493988 13.079413724648873 7.102086813670501 1 -1 1
273 1 6.56396105553239 10.857569091682764 5.672128033708413 0 1 -2
52 1 6.958151990712724 12.712720145060919 9.27844440901821 -1 -1 -1
106 1 4.648985099673796 10.379177975030803 7.145126650710055 3 -1 -2
311 1 10.752209609244266 9.551007717804781 7.997551658156924 0 0 2
644 1 9.330884318368456 11.451960948098952 8.035574089027953 -1 -3 2
712 1 2.422895614207848 11.678845501492312 10.404944871740573 -2 0 -1
306 1 8.713398602062034 9.707609513564504 6.774313508219395 0 1 1
253 1 6.861506440491563 17.332517942980445 10.318513499720186 -1 0 -2
517 1 13.346100929640926 8.992855847786265 6.971405595953169 2 -1 3
16 1 11.736680379113112 7.484248755372114 6.442997430152731 -1 1 1
582 1 10.856243147272382 13.764238508417224 8.580322674009995 3 0 2
845 1 12.500173369844525 9.817398752122761 9.477709708603431 -1 -1 -1
175 1 13.357486748344071 10.965899083333936 5.393947770980048 -1 1 1
276 1 8.932768282354138 13.443428811657196 6.956851640531658 -1 1 1
125 1 14.156078990963398 5.743308933766686 10.106063709354114 -1 -1 -2
121 1 15.291324247771604 13.741875641214182 7.814524398680895 -3 2 -3
554 1 15.183084333368818 9.671812318622266 3.564521656413664 -1 -2 1
567 1 16.647468863322214 11.733588878948726 7.12041228483389 -3 5 2
15 1 12.038715858782071 7.2368036984055815 8.661793295082077 -1 1 -2
245 1 16.07495173526517 9.802332760394476 5.592513905687392 -1 -1 1
376 1 14.241972951948563 11.275912275266249 8.320511535378289 -1 0 -2
240 1 15.3223462340613 9.5796351799228 7.799469155484811 0 0 3
734 1 16.772477102000725 12.507388136593567 9.582306973739739 0 -4 -1
499 1 18.712440739580874 21.696255222943723 10.173763315534845 1 -4 1
508 1 9.761599052074754 0.766555435653294 10.240520840946845 0 -1 1
647 1 20.00728063284317 9.246737679533439 2.0257945874306706 1 0 3
456 1 -0.3558827519956017 10.51480319234279 7.995428535050426 -1 2 1
371 1 17.511974595021695 9.628697522077333 9.444826699560986 -2 1 2
124 1 18.17884656785302 9.710577272077414 6.942415280664061 1 1 0
798 1 12.571415094551622 20.077500564582294 7.84416815575182 -2 -1 1
637 1 18.55323459907814 12.234946724871808 6.62143708672731 1 1 1
219 1 19.822231984889353 11.151483495683284 8.269529843651023 -1 -1 1
832 1 21.460615715075686 11.525745154257104 6.134462272755109 -3 2 3
110 1 11.482854043596308 5.049941397724527 9.611167442191928 -3 0 -3
288 1 2.7072231490361953 10.750338978575359 8.064081403866421 3 3 2
701 1 1.4759697856747542 16.5139239999693 5.7055027990848775 2 -1 -1
769 1 1.9238908597433326 15.008177970532607 7.199350400084098 0 0 -1
293 1 5.2206209202949125 11.017545776328056 9.80917002081432 -2 -1 -1
645 1 1.193032554668423 14.805709526335361 9.503731692755677 3 0 2
233 1 1.6433854288436822 17.04215103810548 8.185838347497361 -1 -1 -2
58 1 3.5906468515744683 16.80140236843048 9.043647895331056 2 -2 -1
809 1 -0.29793199587437297 15.456881270460656 7.416820507597869 0 1 0
53 1 1.3236485026431006 20.663384081847457 9.977877647318877 -1 0 3
649 1 -0.5739286850543195 17.69268229470676 6.064919889124547 -1 0 2
177 1 1.8696402670681271 18.983017263758878 6.407566222418786 -1 0 -1
663 1 5.40223104006711 14.688651154675446 0.7648995639189362 3 -2 1
220 1 8.30240577521182 19.890858235362124 0.015358485260492882 -3 0 0
410 1 5.435560982967756 14.402823592599807 9.29686160467767 -2 -1 0
735 1 6.1241544853622605 16.744232120495475 5.637160022219744 0 1 2
661 1 3.198362532162776 13.444271204864014 9.137508972538233 -3 0 1
264 1 4.890343829298288 18.871412230015732 10.014652009494256 -1 -1 2
836 1 3.9313512243049074 17.698938984290706 6.74144292293772 -2 -4 1
776 1 5.600356650693135 16.786509621866774 8.406069092398557 2 -1 1
607 1 15.172526237970299 10.06335988277551 10.05643159690898 2 2 -2
379 1 10.849059734134553 14.990033205820838 5.634765314181643 4 0 -1
304 1 9.371303383861154 15.563897592891173 3.7859551163087 -1 2 0
356 1 11.573635340708273 11.616163748329884 8.107034653952747 1 2 -2
449 1 8.728105537245922 14.635262988997109 8.983719901654405 -2 0 -1
483 1 13.029037238906422 4.792971167146541 8.083006211129192 -1 -2 1
166 1 8.33838960144565 15.684062768725926 5.857920899081563 -1 -1 0
574 1 13.17926580553285 13.133760120470352 6.965253550872809 0 0 3
850 1 12.426016753710353 15.256489991554524 7.720221376253049 0 0 1
827 1 9.597769484413938 18.05333592445558 10.512447935973729 1 0 -2
191 1 13.402685325333799 13.767605032138777 9.444514740983113 0 -2 -1
700 1 15.513436503214113 16.336140462497827 9.989692025749855 1 2 -2
405 1 10.260531338190988 17.210125675078803 5.209301383283956 0 -1 3
76 1 17.27211813359123 14.775965900191387 8.414097914971459 0 -2 2
149 1 16.93915551552134 15.325475485814499 3.5240188067471756 0 -1 2
160 1 14.743705527551535 15.907455742452878 7.303647321663277 -3 -1 0
313 1 15.55214978719701 17.136437885445552 5.090218711890501 1 1 1
73 1 19.40440534727323 13.117031216184419 9.049456599412782 0 -2 1
841 1 19.065025289384863 16.229959778690116 6.656155996729898 -1 0 2
215 1 -0.2754341675445659 16.678245585836404 10.157291249827695 -1 -2 3
426 1 21.51372906241351 13.025650155421676 7.6041980067254435 -3 0 2
277 1 16.60822986963645 15.09990320537971 5.963697177914783 0 4 1
252 1 18.43069909284166 17.206957005298037 8.948899032537152 -3 -2 3
762 1 1.333893174578067 12.595196039522916 8.087311556162375 0 1 2
858 1 19.917970609663982 15.158448490550466 8.490824161824447 -1 -2 0
268 1 18.642972817954117 19.920370213988946 4.520458113864209 -5 0 -2
6 1 0.4190264890635207 20.311657635973233 7.807268578309252 -4 -2 -1
18 1 1.9703271560907631 20.99613948957364 5.5281330132604 1 -3 0
461 1 3.4215882978667054 21.822600959096967 10.311016704885004 3 -1 0
783 1 20.712252730911565 20.248147637035572 6.861606963236151 -2 0 -2
799 1 0.20344791893662972 19.829895770203986 4.650082046892274 -1 -2 2
491 1 20.915406530260682 17.871807343636352 8.448535465391554 -1 0 1
383 1 13.245220913099924 3.541372689556968 10.27381221745249 -3 1 -1
346 1 2.8419702650321104 19.1401647112707 8.90410456238681 0 1 -1
804 1 6.107448296038531 18.84559180808687 7.370190765171209 0 0 -2
621 1 4.130099544843945 20.498982923397936 5.987594936638441 -1 2 -2
159 1 6.4648063603221635 21.27468077068471 6.465910996452907 0 -2 -2
633 1 5.490889764951193 20.902900609111192 8.741682977674058 -2 -1 1
688 1 6.66177623147034 19.576274879439858 5.049059102628776 -2 -1 1
97 1 20.885853283589494 11.209133437783064 10.363659240211753 -1 2 1
352 1 10.410192403231804 18.72349484505076 7.480690311344427 1 3 -1
27 1 12.191985585112999 17.34305522268419 7.50001493345189 1 1 -1
262 1 10.259367917667754 15.881346474699662 7.521317552577781 1 -1 1
33 1 7.970491026584828 17.10065098902978 8.525110311841608 -3 -1 0
146 1 8.478827443937176 20.282861456148503 6.888093979633307 0 -1 1
718 1 10.746161251044569 21.61249599458931 6.313090839682257 3 0 0
795 1 16.05954083392283 19.130718289816947 4.29088773194586 -3 -1 0
29 1 17.99306647037877 21.56155989876394 5.93560971941925 -3 -1 -1
211 1 12.587169832087305 16.683815914093106 5.415768758653836 1 2 1
584 1 13.85015259907274 18.600378912053106 6.299453640291175 0 -1 0
278 1 4.904633240293472 1.3905138486243132 10.433969086265074 -1 0 0
251 1 15.769596891171968 3.1078648979629873 9.881180041670913 -1 2 -1
620 1 14.308129954390957 1.016011104561427 -0.5733848034027703 -1 0 -1
42 1 4.430322048234486 3.853750297880276 0.0027964020652510024 0 -2 -2
127 1 11.812957749353425 1.8522649477684863 10.280028075987458 0 2 0
608 1 0.04223442338443062 17.3928690256183 -0.5702324397657299 1 -1 1
612 1 0.01439857439113279 12.803530089661583 9.804806401322802 1 0 1
322 1 21.851186819046294 2.966014436726967 10.499712483635884 -1 1 0
818 1 10.110718252727548 11.073101667873917 10.07500693631652 1 2 2
96 1 12.79892479586257 18.69354385277732 9.667936754680621 0 -3 5
170 1 5.557559139748835 18.926917840665645 -0.5320569535818771 -1 1 1
555 1 20.60205752322275 5.64008435014847 10.424520495201401 -1 2 -4
699 1 13.268479798095932 15.986243722914637 10.252321065578084 -2 0 -1
285 1 2.2566953422313416 1.5880089957711032 10.524888285334718 -3 -1 -3
675 1 -0.5218492698138064 4.521987877232797 -0.5218423866382693 1 2 -1