LAMMPS data file via write_data, version 29 Oct 2020, timestep = 300000

864 atoms
1 atom types

-0.14081490727508772 21.404814907272247 xlo xhi
-0.14081490727508772 21.404814907272247 ylo yhi
-0.14081490727508772 21.404814907272247 zlo zhi

Masses

1 58.933

Atoms # atomic

8 1 3.486922480088542 1.7747552821521089 1.6318502307910687 0 0 0
27 1 1.5454088732367812 3.3375517642751396 1.5156364117014243 0 0 0
146 1 1.6044509588128115 1.584009903459858 3.675444929810211 0 0 0
173 1 3.4025174748788767 3.35633930357169 3.6655548733196914 0 0 0
171 1 1.4856755541340845 3.362500273182185 5.265344141606955 0 0 0
3 1 1.8095114271700412 21.31016335594748 1.7474132959713016 0 -1 0
147 1 1.8139961669815505 21.252275905776628 5.412854136678624 0 -1 0
152 1 3.5920715800549754 1.5962220476265039 5.531902653302489 0 0 0
29 1 3.4698173100169227 3.4311588817089875 -0.12019709576067333 0 0 0
4 1 -0.014683670952290617 1.4020499589912547 1.7924466629173361 0 0 0
145 1 -0.003031122070799447 21.060675070212525 3.45569080843258 0 -1 0
12 1 6.944764678870266 1.533291276599034 1.6303143124088566 0 0 0
31 1 5.204145843766888 3.3781424404500386 1.617595504346957 0 0 0
150 1 5.364492549725162 1.5453472479211807 3.39165991193736 0 0 0
177 1 6.955660952325844 3.3243847187139353 3.4203544473842764 0 0 0
33 1 7.117027137810094 3.3235851694349225 0.08517868556253697 0 0 0
7 1 5.223768564509652 21.35466605352011 1.51216375907061 0 -1 0
156 1 7.228525139937089 1.6104489059161522 5.173703251977739 0 0 0
16 1 10.715611148006277 1.5637555068282565 1.4854742675754844 0 0 0
35 1 8.92311888834443 3.2404297035310874 1.7825767804366197 0 0 0
39 1 12.375808693941604 3.4755901547210413 1.6273797261131815 0 0 0
154 1 8.903563072894928 1.5387699011439258 3.4426970575239695 0 0 0
158 1 12.498647032256871 1.627372307820852 3.2324409973456283 0 0 0
181 1 10.709626439075405 3.4597275465634776 3.5008324404735833 0 0 0
183 1 12.56322123109652 3.4439590489983045 5.2001698284338564 0 0 0
160 1 10.913482244253226 1.7142059649992702 5.049716106620922 0 0 0
573 1 17.71533068003029 17.859963527518786 10.582304055170566 0 0 0
37 1 10.521317419855638 3.4647685077721126 -0.13533865983256202 0 0 0
157 1 10.76245242133433 21.37981160858206 3.492598958177818 0 -1 0
20 1 14.180537194632644 1.792525653283118 1.5412285435578528 0 0 0
43 1 15.946614909541863 3.573556696575445 1.4899051145061462 0 0 0
162 1 16.3212222227343 1.8974109064263827 3.337904981259411 0 0 0
185 1 14.072567056384559 3.539697268895414 3.3965094281721377 0 0 0
161 1 14.362688935858275 0.16299318699942744 3.3491547054796347 0 0 0
41 1 14.17338844335781 3.6080899129416415 -0.12363125358210952 0 0 0
412 1 21.25612156469544 19.58116623282494 8.77645683483985 -1 0 0
169 1 21.380288759235874 3.510993847844341 3.439022602558397 -1 0 0
24 1 17.964034497652705 1.5171690468339032 1.5485411146669592 0 0 0
47 1 19.90810155283657 3.1300679477062663 1.4728904154922657 0 0 0
166 1 19.387177977908713 1.657242088773633 3.450194517290363 0 0 0
189 1 18.008474665406048 3.6206916465703904 3.2007563142956665 0 0 0
23 1 19.717543295816498 21.377273443411877 1.6174740967548522 0 -1 0
168 1 17.727809856306187 1.4871085971380906 5.306222500671249 0 0 0
165 1 17.935199785860434 21.36894446386639 3.380916934076407 0 -1 0
167 1 19.43506331024446 21.322878444398935 5.31809613334076 0 -1 0
45 1 17.99504575880796 3.462308456727047 -0.049099553936630805 0 0 0
32 1 3.3204704969194188 5.141567901324547 1.7826741362275205 0 0 0
51 1 1.5546135660812985 6.911663622052842 1.8906415943807593 0 0 0
170 1 1.513387461380369 5.212765017313809 3.4674241960426273 0 0 0
197 1 3.2663113054350568 6.9727553784242735 3.5882902541817567 0 0 0
195 1 1.7037558521560494 7.077097020938005 5.363345442861831 0 0 0
28 1 21.394082250909918 5.121612651972287 1.5190875885326096 -1 0 0
26 1 1.584744267741257 5.318205981645875 -0.11571668072261973 0 0 0
36 1 7.03998586658906 5.3086526374270635 1.8283618514978914 0 0 0
55 1 5.151519596957677 6.802047136776009 1.6079718762159272 0 0 0
174 1 5.140715675487254 5.161242851880692 3.43364857309238 0 0 0
201 1 7.1600952682998225 7.0945813788814265 3.61150264708446 0 0 0
199 1 5.249408304481107 7.005203836644827 5.281099140380846 0 0 0
40 1 10.547329605194687 5.140005285209878 1.7710717174346606 0 0 0
59 1 8.874235102871811 7.115374653479888 1.7594479063275712 0 0 0
63 1 12.525578832315976 7.17244087525048 1.897180819681307 0 0 0
178 1 8.912436827475203 5.3055988375902805 3.443360425340213 0 0 0
182 1 12.249969555247398 5.130998650127589 3.271532699168528 0 0 0
205 1 10.570561117107022 7.132444711095465 3.635660013988938 0 0 0
44 1 14.01895689442001 5.402021311574549 1.699188087915738 0 0 0
67 1 15.975597731635395 6.971860370368843 1.6201882217100834 0 0 0
186 1 15.878071000615497 5.203295838648406 3.460555598644632 0 0 0
209 1 14.34419308731642 7.047436725383629 3.5737427459645037 0 0 0
211 1 16.020479574507355 7.098666997736128 5.199515590565046 0 0 0
287 1 19.38664124483077 17.63108353015768 5.1696262925312695 0 0 0
288 1 17.737073830948404 19.656333505047265 5.127719768087994 0 0 0
432 1 17.6464600174604 19.78665157321589 8.889923494003666 0 0 0
193 1 -0.09376746661468616 6.923349206316779 3.5981047775086 0 0 0
48 1 17.811524174960326 5.346905181682837 1.6166391370204463 0 0 0
71 1 19.78520889528412 7.2360752649936515 1.4855753795548938 0 0 0
190 1 19.7147011733328 5.460226361977562 3.3802472078418218 0 0 0
213 1 17.81711095982817 7.2448660117183685 3.382737509784311 0 0 0
431 1 19.477196163024118 17.790809268681215 8.915180841984045 0 0 0
56 1 3.2842433116817733 8.759792068420651 1.8356091955353964 0 0 0
75 1 1.523720876162604 10.68287071066471 1.8445280119959016 0 0 0
80 1 3.1524257924155155 12.4183128700475 1.7493388156655498 0 0 0
194 1 1.5993092456903113 8.951538084595736 3.6833810441930335 0 0 0
218 1 1.4734680717258104 12.455020686498175 3.616227260028231 0 0 0
221 1 3.2514471800361893 10.566382464122073 3.621005234347355 0 0 0
219 1 1.639257691354976 10.509128997904869 5.378100769293761 0 0 0
76 1 -0.08539803476580543 12.553335541966746 1.6610088441940203 0 0 0
52 1 -0.04692628159524956 8.978379830869036 1.72462164807781 0 0 0
74 1 1.541714340346266 12.635938061671169 -0.04242050305459831 0 0 0
217 1 21.27949568885373 10.775313940792666 3.699562845740112 -1 0 0
430 1 19.4718667152763 19.586670432001107 6.98914559168076 0 0 0
60 1 6.900360801881715 8.786058512080382 1.6708620002941466 0 0 0
79 1 5.089492116776038 10.705397509673077 1.759090079676892 0 0 0
84 1 7.041344672859399 12.401228521777332 1.7423933692072462 0 0 0
198 1 5.094744257643786 8.703186914542728 3.48150744912683 0 0 0
222 1 5.199980164833026 12.530336167991418 3.5421309466528044 0 0 0
225 1 7.234798023093111 10.54387988784172 3.47905761783474 0 0 0
54 1 5.07055672350995 8.795228910057006 0.08554001010334306 0 0 0
64 1 10.587218735604882 8.815952009761093 1.581291846083362 0 0 0
83 1 8.9340255407929 10.727090258351785 1.6020252985921115 0 0 0
87 1 12.428822907222429 10.508600269847333 1.8277765978819989 0 0 0
88 1 10.672112504499426 12.441065895850976 1.7086805429172884 0 0 0
202 1 8.948557553235887 8.979503997908845 3.491573682473586 0 0 0
206 1 12.353890647870958 8.867015946265871 3.591500976957471 0 0 0
226 1 9.068736596592126 12.49521037188584 3.4668558966623264 0 0 0
229 1 10.716694180597157 10.637647059325662 3.4138217505251087 0 0 0
230 1 12.254779601381482 12.405491800403695 3.2524579520643533 0 0 0
227 1 9.165317995128321 10.62956554956977 5.205587562415617 0 0 0
232 1 10.74665972685793 12.349493420271603 5.2930336271150855 0 0 0
231 1 12.432702892077995 10.72969915798762 5.313428930335822 0 0 0
85 1 10.788810045292081 10.505583432012408 0.01883437158303153 0 0 0
429 1 17.872332651182305 17.88545955297944 6.907565370476993 0 0 0
58 1 8.755975191889473 8.843958821737978 -0.1305725916591468 0 0 0
68 1 14.449469878677034 8.877728086128762 1.7865992938551494 0 0 0
91 1 16.069978350041772 10.57075309131419 1.6634596954995948 0 0 0
92 1 14.096206662021267 12.39421775342922 1.6768608340890714 0 0 0
210 1 16.071888860784178 8.814177924739973 3.529304404229975 0 0 0
233 1 14.134764498520903 10.576986830993166 3.436295444702897 0 0 0
234 1 16.15167003495649 12.373584169984714 3.2518545692684544 0 0 0
236 1 14.3512747846946 12.303209280341017 4.825129631512379 0 0 0
309 1 17.833008496032768 21.39739906441855 7.027426856025966 0 -1 0
235 1 16.142607664485816 10.623183362724701 5.150687583952353 0 0 0
212 1 14.030454116727423 9.034377407638436 5.2943507420499465 0 0 0
89 1 14.181687627424557 10.55086016296027 -0.09432100045822553 0 0 0
72 1 17.918018982563062 8.728648618011594 1.7486713617926681 0 0 0
95 1 19.709462501507538 10.719896577628953 1.4633375306664467 0 0 0
96 1 17.973161869434357 12.115736886205992 1.5811222929391704 0 0 0
214 1 19.81039155375445 8.980177824795323 3.382478146506572 0 0 0
237 1 18.041963385197334 10.648411985903756 3.390678637473955 0 0 0
238 1 19.641364728669174 12.415855652518479 3.4750808899961743 0 0 0
196 1 21.28700292279843 8.71703096232283 5.340454973920556 -1 0 0
216 1 17.848456124351138 8.82164461582153 5.1458491683001 0 0 0
240 1 17.965124348489432 12.508467447159433 5.067022836809305 0 0 0
93 1 17.818398156264223 10.329769469404653 -0.027857694860844967 0 0 0
70 1 19.621100155660002 8.98283945053071 0.0325076848076587 0 0 0
99 1 1.8549828514310518 14.513558704866082 2.011825231745185 0 0 0
104 1 3.5933217095358647 16.10953188365727 1.7036895506000906 0 0 0
242 1 1.4742686633780107 16.028555473832576 3.6692736556893726 0 0 0
245 1 3.4867724990296756 14.045555733813796 3.628156205497807 0 0 0
248 1 3.360533163765618 15.972902916675428 5.178941417338775 0 0 0
101 1 3.337296524534705 14.099022725143131 0.09889512801246772 0 0 0
98 1 1.707006723134806 15.957712808878197 -0.029189079685923616 0 0 0
103 1 5.362940539675274 14.144352093098911 1.5558743778113637 0 0 0
108 1 7.030741772676213 15.955744163906 1.604955878778715 0 0 0
246 1 5.227173619798011 15.936984619585248 3.4218633071631523 0 0 0
249 1 6.989361020680358 14.32342043385904 3.3782624481346204 0 0 0
453 1 17.861597379763666 -0.07337857957246996 10.579969390285516 0 0 0
107 1 8.878694767982104 14.207714138601277 1.7271502913970702 0 0 0
111 1 12.302503120550798 14.228241125957753 1.4691462935388386 0 0 0
112 1 10.71148091276555 16.072900354051697 1.4862840212450628 0 0 0
250 1 8.905195064509781 16.019136408498113 3.2450505821811206 0 0 0
253 1 10.750631020521556 14.180501726728464 3.4690088128668335 0 0 0
254 1 12.347206231072901 16.000931784523864 3.284403975646426 0 0 0
256 1 10.818337612941797 15.86995051996624 5.295750293707932 0 0 0
255 1 12.714942747899165 14.082507798846638 5.03942694199333 0 0 0
251 1 9.065303898635152 14.400559582077811 5.224845947771784 0 0 0
569 1 14.310784601386342 18.13910128984655 10.457785422083619 0 0 0
305 1 14.230844920627542 -0.06185410561332105 7.065431049447962 0 0 0
115 1 16.27856531495739 14.247252999150318 1.5925013693678651 0 0 0
116 1 13.990376141435403 16.056917453142432 1.6653789373932122 0 0 0
257 1 14.24488156523342 14.273538586540568 3.3080617397916074 0 0 0
258 1 16.022076987434318 16.073746379324724 3.2602775374073207 0 0 0
260 1 14.054934586032326 16.087800326005876 4.965908769923916 0 0 0
428 1 14.389602789506391 19.48021688505213 8.747954717309888 0 0 0
241 1 -0.14029558436533307 14.227331201635964 3.4046229752523733 0 0 0
100 1 -0.06337053525637515 16.243180078438193 1.678039355885223 0 0 0
97 1 0.03331513041920431 14.441974010024728 0.12585824093542752 0 0 0
119 1 19.554552148084092 14.184653033265048 1.7232296790799528 0 0 0
120 1 17.68070376442352 16.078648662199505 1.4348379425864177 0 0 0
261 1 17.79920510837991 14.225645974953453 3.2638413385636995 0 0 0
262 1 19.426930056736524 16.051553700500975 3.20234635354555 0 0 0
264 1 17.609477715432277 16.067959755165724 4.991927384139623 0 0 0
427 1 15.944709934277933 17.556811707079746 8.52533457419731 0 0 0
149 1 3.570529924923093 0.05808996296195801 3.3767729762937106 0 0 0
123 1 1.6839059116310438 17.75688440982529 1.6881433767686582 0 0 0
128 1 3.5655812428235514 19.708090252935442 1.6654714361315646 0 0 0
266 1 1.7411198330340518 19.456061281202196 3.5336688120510225 0 0 0
269 1 3.521977819215604 17.67590061810423 3.6207077624889883 0 0 0
267 1 1.5701889598494965 17.787245083723818 5.4617341479613915 0 0 0
272 1 3.582101911966956 19.690755358606722 5.046395391894754 0 0 0
426 1 15.969348736859667 19.52798241783217 6.996963973411729 0 0 0
125 1 3.3987450232013896 17.827496549959577 0.023177786554975266 0 0 0
9 1 7.062798587572442 21.36145106083275 -0.12631421311510005 0 -1 0
153 1 7.191442361967629 21.367656315095303 3.3914342489456515 0 -1 0
127 1 5.305943460231954 17.801579913879728 1.7721231801291406 0 0 0
132 1 7.098344922051036 19.61805535325705 1.5117785624448985 0 0 0
270 1 5.331809964610644 19.59362186955694 3.37586394804684 0 0 0
273 1 7.11204699924082 17.998575079278666 3.414186243091331 0 0 0
425 1 14.15208911723139 17.79313571811823 6.938317068629747 0 0 0
307 1 15.652755812685973 -0.011342972474245983 8.687513842793129 0 0 0
271 1 5.3909494665149476 17.816234345440215 5.263866729173709 0 0 0
276 1 7.018824401454467 19.571008107962307 5.272718682243577 0 0 0
15 1 12.39130121401484 21.343271693644944 1.4192463645671691 0 -1 0
303 1 12.322890888636268 0.07068832899081201 8.831973496545618 0 0 0
155 1 8.884724927423374 21.288517092971922 5.345775697322198 0 -1 0
11 1 8.973394967041159 -0.03367481599313038 1.8162299713743666 0 0 0
131 1 8.693547494917288 17.55853344695233 1.4858855555294077 0 0 0
135 1 12.411096386268367 17.87829079975893 1.6781670421323733 0 0 0
136 1 10.620828441913504 19.491561140746292 1.665166250212304 0 0 0
274 1 9.13712617129757 19.702966861549683 3.488491011665176 0 0 0
277 1 10.830843173687786 17.80017144459096 3.524309911272038 0 0 0
278 1 12.519807456546749 19.826114452882024 3.322433695216348 0 0 0
280 1 10.850760807616439 19.5983026727298 5.23254285216413 0 0 0
424 1 10.7503338254122 19.80972251702159 8.990883831624254 0 0 0
279 1 12.434175396987202 17.914940787413606 5.3628825699337295 0 0 0
275 1 8.98639749622252 17.56960564465725 5.17424141923979 0 0 0
423 1 12.451213795658228 18.003796038266067 8.984210145522793 0 0 0
422 1 12.480861717738037 19.7902290939761 7.075691372057705 0 0 0
163 1 16.074811658028196 21.176680292063367 5.2014027044114295 0 -1 0
19 1 16.128805574708707 0.04917353016425352 1.4208890473075861 0 0 0
284 1 14.083911893393557 19.90184326309491 5.206463474394581 0 0 0
283 1 15.855306865998886 17.76642262215168 5.2482837002242375 0 0 0
139 1 15.894060836510777 17.925183448535094 1.593824029360909 0 0 0
140 1 14.18303051632276 19.79089202521991 1.485259471770763 0 0 0
281 1 14.122193593037013 18.045897869951894 3.2772473211139577 0 0 0
282 1 15.929218044954611 19.919852048147014 3.2006297220531588 0 0 0
268 1 -0.13384651567311323 19.466493486462994 5.504012457009161 0 0 0
124 1 0.0439327713334805 19.373072107238713 1.6010390934800602 0 0 0
265 1 21.217362383147197 17.69679941951987 3.5538754067839595 -1 0 0
143 1 19.734719423906007 17.925100641675307 1.6698927374585477 0 0 0
144 1 17.886986942346773 19.70730345845176 1.5472575996301847 0 0 0
285 1 17.684325021421976 17.78473650189119 3.210647914280297 0 0 0
286 1 19.55759086616996 19.521439448694842 3.5798832784110908 0 0 0
290 1 1.4619884753193853 1.3319008825386152 6.8658182257733325 0 0 0
296 1 3.3643713851831127 1.5877488441259904 8.794998648950951 0 0 0
315 1 1.4608011417765772 3.439208810201583 8.74470183478797 0 0 0
317 1 3.199061608316349 3.339477594785532 7.075003752623751 0 0 0
292 1 -0.11311083903504515 1.6890615326125422 8.799011660660799 0 0 0
148 1 21.226127963206988 1.5936260227666397 4.950771514471615 -1 0 0
418 1 9.029617064748061 19.584349363309116 7.058733155085763 0 0 0
299 1 8.927925119808389 -0.13397556852105197 9.05327220495491 0 0 0
151 1 5.3441474454628 -0.1010823066556028 5.2082179640836745 0 0 0
175 1 5.317705823966439 3.128792723181001 5.225374536926055 0 0 0
294 1 5.226377350760198 1.5974020857996902 7.128678773751522 0 0 0
300 1 6.922473002818212 1.4251263582827831 8.749767728886585 0 0 0
319 1 5.18303889968285 3.4359109758611233 8.737990431464564 0 0 0
321 1 6.947187176027497 3.181912224018841 6.96604208085523 0 0 0
465 1 7.024370691053279 3.397882944265163 10.344615913308534 0 0 0
438 1 5.133454462584673 1.5124106821375158 10.521409661750008 0 0 0
159 1 12.629031038391897 0.09526321734876575 5.092171359105236 0 0 0
179 1 8.756874133222386 3.5046196387000825 5.105297537882033 0 0 0
298 1 8.516851677534465 1.344197632494381 7.0148052153169305 0 0 0
302 1 12.402093840871721 1.6700297064630014 7.021434091884586 0 0 0
304 1 10.486823883619069 1.6074663313537458 8.989995048392897 0 0 0
323 1 8.815298729348147 3.274725214250208 8.544721274811387 0 0 0
325 1 10.568428529009218 3.1726263060140116 6.965085855237958 0 0 0
327 1 12.422412655326168 3.4907594733646263 8.789273883958034 0 0 0
419 1 8.95640320340439 17.93814590802512 8.92137328956382 0 0 0
421 1 10.72071445410219 17.867156511760108 7.158889190669355 0 0 0
164 1 14.503023702155199 1.6842136439966178 5.116031509985015 0 0 0
187 1 16.223026601607963 3.3675793129287195 5.159287191271996 0 0 0
306 1 15.952362035594403 1.729772781058055 7.066004629185489 0 0 0
308 1 13.94322797493456 1.8084245436948208 8.880355682923229 0 0 0
329 1 14.226873260699618 3.485649861060512 7.019199936296527 0 0 0
331 1 15.867813638232844 3.3836456123336225 8.782288647255498 0 0 0
311 1 19.60104318528203 0.01841203566246466 8.705357004355987 0 0 0
289 1 21.276694899933297 21.27072712813143 6.860578137384415 -1 -1 0
313 1 21.264292454565002 3.3555990434411953 6.978861957161648 -1 0 0
191 1 19.50581996700469 3.5233573637916247 5.144078803000586 0 0 0
310 1 19.30913795324153 1.930639005782394 7.022552735195219 0 0 0
312 1 17.788486532002707 1.7554661517775694 8.879058139717388 0 0 0
333 1 17.602750188196687 3.6546786819844965 6.979338036572249 0 0 0
335 1 19.720032497273436 3.476693668546965 8.907041157616119 0 0 0
301 1 10.708856276783694 21.3067572755237 6.881227538209218 0 -1 0
477 1 17.873026280281216 3.5270948193455705 10.609961033209913 0 0 0
176 1 3.586519646851013 5.082885740216307 5.347731073931225 0 0 0
314 1 1.574000961892259 5.23721789256629 7.1209420681230196 0 0 0
320 1 3.4207037793455277 4.850892395201641 8.768444862699448 0 0 0
339 1 1.6508637547842075 7.007888187496784 8.750202173315296 0 0 0
341 1 3.406633043482657 7.059366916936664 6.919399982270262 0 0 0
172 1 21.341760674287105 5.234815750977504 5.198727648760082 -1 0 0
316 1 21.373410856643336 5.247948869918405 8.861403788924532 -1 0 0
180 1 6.871778082792924 5.114673578195945 5.276596265902211 0 0 0
318 1 5.149001184709564 5.1926229807803015 7.141575942614882 0 0 0
324 1 7.042746934964588 5.013278786312752 8.693855336088324 0 0 0
343 1 5.168818414731996 6.845065279770597 8.826920146410583 0 0 0
345 1 7.040856843377896 7.013268739556094 7.247918092339963 0 0 0
203 1 8.801680569223926 7.109882377313049 5.251610641466751 0 0 0
207 1 12.329486583677712 6.92819313175246 5.303052741042411 0 0 0
184 1 10.588577541874756 5.089760283447757 5.254234218468174 0 0 0
322 1 8.690102109006201 5.096860412013908 6.99333143808677 0 0 0
326 1 12.251955187672484 5.3844513684149495 7.1143638721998785 0 0 0
328 1 10.642728662208619 5.196226941294148 8.769504941062783 0 0 0
347 1 8.900003115004635 6.969854887357448 8.811100305067127 0 0 0
349 1 10.45551069254139 6.970223894765269 6.943762326184847 0 0 0
351 1 12.36550617669738 7.084121874328888 8.810869551793315 0 0 0
466 1 8.73775919204842 5.109941615641518 10.273870224607524 0 0 0
415 1 5.176919768914592 17.85318838207121 8.859754999843718 0 0 0
188 1 14.362642535866637 5.240147999813954 5.183086476236152 0 0 0
330 1 16.051844220123755 5.245873648718498 6.805057829492796 0 0 0
332 1 14.036012075271481 5.303350305322954 8.716983286436923 0 0 0
353 1 14.23038561741834 7.1390843559053 6.999225530588275 0 0 0
355 1 16.006493489640548 6.871596805705398 8.663815670073244 0 0 0
497 1 14.084596724148465 7.07111105950501 10.526698460805711 0 0 0
337 1 21.306299070361895 6.7970879347741056 7.010844117769332 -1 0 0
215 1 19.537037875778303 7.104786597276282 5.244018877493574 0 0 0
192 1 17.838427716395522 5.2987874645166135 5.116689011207039 0 0 0
334 1 19.499764787027452 5.089038774470176 7.134164910189674 0 0 0
336 1 17.699225769948846 5.1300062937944615 8.737762364425077 0 0 0
357 1 17.593992262650126 6.952947554106444 7.069809363832176 0 0 0
359 1 19.393041872311052 6.955918316177598 8.788681742157346 0 0 0
478 1 19.618936913246536 5.285605343543036 10.61259289751071 0 0 0
501 1 17.592399974294125 6.97182052624358 10.512476431708782 0 0 0
224 1 3.4755400857375687 12.34527202404738 5.532820660754708 0 0 0
200 1 3.5125961665529766 8.790151400240052 5.243122937388638 0 0 0
338 1 1.5678833113307398 8.753400025659754 7.036459997324542 0 0 0
344 1 3.373849668546946 8.637005318870507 8.812262939884123 0 0 0
362 1 1.685852929303434 12.60064817724051 7.209120638235796 0 0 0
363 1 1.6176878026555148 10.692882455825833 8.61062365878688 0 0 0
365 1 3.6739128619660026 10.603751001484232 7.040728849249923 0 0 0
368 1 3.5040439154123577 12.580482857060815 8.795622133222748 0 0 0
506 1 1.6452330952254912 12.194335829463123 10.622170120591518 0 0 0
364 1 21.19151898561135 12.547643114433077 9.034937002800545 -1 0 0
204 1 7.045488123219885 8.916129669306393 5.188527454201201 0 0 0
228 1 7.2779491398158935 12.667756877840421 5.052582956603926 0 0 0
223 1 5.528357153401141 10.609105463938697 5.379015754605612 0 0 0
342 1 5.180463638038788 8.743845381689313 7.016651657460116 0 0 0
348 1 7.0044772284363646 8.765765416451272 8.788348294193781 0 0 0
366 1 5.513652117208318 12.415413432153038 7.158058708733175 0 0 0
367 1 5.386094964258037 10.645552465387993 8.775679110234593 0 0 0
369 1 7.23744146065538 10.647123535991563 7.0931037841224365 0 0 0
372 1 7.393304645250856 12.549741280566815 8.914975425928382 0 0 0
513 1 7.213360227484279 10.59222412113282 10.517893685380148 0 0 0
208 1 10.640839699400768 8.87870935663519 5.434816428573401 0 0 0
346 1 8.844530389486346 8.753704564479522 7.073602198719839 0 0 0
350 1 12.32357623059196 8.683610835819893 7.023508678333837 0 0 0
352 1 10.554896098988271 8.694304433569 8.870393653581672 0 0 0
370 1 8.907678551771456 12.350178189437738 6.876456713199604 0 0 0
371 1 8.979944730240668 10.729776475524433 8.783528684392744 0 0 0
373 1 10.721211307595174 10.520899626385038 7.156383277519323 0 0 0
374 1 12.569839177298308 12.401073008913349 7.008842817385558 0 0 0
375 1 12.502748790386514 10.71835871404289 8.763859551319408 0 0 0
376 1 10.52939547480726 12.528430014379099 8.781163875309764 0 0 0
414 1 5.1448030480839035 19.575436715472286 7.019543480483161 0 0 0
417 1 7.2493984231659 17.772409395911183 7.05595494938642 0 0 0
420 1 7.108098794848322 19.46325741304242 8.863380327237904 0 0 0
490 1 8.858621601220484 8.735969652673733 10.52474029523294 0 0 0
295 1 5.176963087636216 21.12423216979441 8.830495677770744 0 -1 0
354 1 15.953114762317119 8.973989543110958 7.025250202180312 0 0 0
356 1 14.085625130594298 9.025326091337693 8.733281838318053 0 0 0
377 1 14.128217057274146 10.586300726053894 7.164675950390639 0 0 0
378 1 15.914568763041027 12.44675465640429 6.932127184102674 0 0 0
379 1 16.06397880358422 10.709942432070115 8.759003988480723 0 0 0
380 1 14.467489806093786 12.409249594835824 8.81817725181497 0 0 0
558 1 5.0923610708782325 19.441814590195797 10.606767297602643 0 0 0
498 1 16.00380621836012 8.623145468870801 10.605195113751437 0 0 0
220 1 21.20278814015216 12.527097168918154 5.516252902647867 -1 0 0
361 1 21.070320456305446 10.820980252375163 7.238286749371131 -1 0 0
340 1 -0.03971981322353457 8.830992369949998 8.840585378883606 0 0 0
239 1 19.525296412965908 10.858242551813452 5.386648406336018 0 0 0
358 1 19.55854720490626 8.695316971688856 7.016851224431135 0 0 0
360 1 17.733118250596306 8.893360328128177 8.855121090380514 0 0 0
381 1 17.90969785621955 10.645506350819801 7.061395561753712 0 0 0
382 1 19.459380073146356 12.48975297203922 7.309301172143713 0 0 0
383 1 19.585693588598957 10.543508180441105 9.181629712477552 0 0 0
384 1 17.596237672460653 12.420142355932592 8.936720270164933 0 0 0
243 1 1.608847184247346 14.10148568559284 5.344635218052229 0 0 0
386 1 1.7444196380090533 15.933572561313257 7.179429207683447 0 0 0
387 1 1.5151139626569021 14.257520673754284 9.07323823347496 0 0 0
389 1 3.59037470395065 14.226479836905439 7.087537976771769 0 0 0
392 1 3.490798052564327 16.05516798825181 9.14344072516769 0 0 0
441 1 6.9471233442723515 21.341796652921246 10.461052769888886 0 -1 0
385 1 21.091693370735765 14.246884728764451 7.132712033201342 -1 0 0
247 1 5.224224723706574 14.326499078975083 5.488430310136534 0 0 0
252 1 7.117848357073869 16.046983498963577 5.263596686797026 0 0 0
390 1 5.384900634462841 16.268789626503384 7.230899929771435 0 0 0
391 1 5.355270374235029 14.195541311586584 8.741373764352508 0 0 0
393 1 7.101791203088266 14.20405598892611 6.924912376193257 0 0 0
396 1 7.161765860405424 16.0234136445168 8.953393893472324 0 0 0
394 1 9.030562166142019 16.13856004841255 6.958081426369197 0 0 0
395 1 9.008295309880653 14.296823558681188 8.878449787184499 0 0 0
397 1 10.674956750537346 14.07338114698775 6.856588547948626 0 0 0
398 1 12.530766188059532 15.744768348447288 6.808597084876853 0 0 0
399 1 12.43807724722697 13.999178530363064 8.7342346886201 0 0 0
400 1 10.81628468401636 15.826299080970928 8.754591581388837 0 0 0
542 1 12.539330034171858 16.126635800579947 10.558543343511372 0 0 0
259 1 16.109313718717914 14.137681698088297 5.0744147762706815 0 0 0
401 1 14.276897512916719 14.111022186988263 7.027078055984212 0 0 0
402 1 15.836199854930149 15.720694686818751 6.830926233035207 0 0 0
403 1 15.976120966174589 14.486310381369927 8.913364521089868 0 0 0
404 1 14.034993793184483 15.873147177297477 8.654912238718012 0 0 0
297 1 6.9978599545398135 21.20241574770025 7.219730703640291 0 -1 0
554 1 1.5305506435462517 19.650094939396688 10.552510289999162 0 0 0
244 1 21.39393835454274 15.964293583292575 5.359068708182026 -1 0 0
388 1 21.249653112608478 15.925491553127868 8.94363589605665 -1 0 0
263 1 19.579551972509165 14.40643377343526 5.072403526831123 0 0 0
405 1 17.657834296201955 14.25123052690912 7.228413478595968 0 0 0
406 1 19.38216615640632 15.970867706560716 6.884221258787329 0 0 0
407 1 19.490022387215824 14.395948603227536 8.901978604031294 0 0 0
408 1 17.974722360090745 16.091664945568482 8.99714876252452 0 0 0
416 1 3.2096813785834364 19.423982996474045 8.833829697859288 0 0 0
291 1 1.3602994257123602 21.32047800521748 8.916166494327712 0 -1 0
293 1 3.3629367886514725 21.240219431749573 7.288834112581471 0 -1 0
409 1 21.15221671897066 17.687288857882415 7.150478832786513 -1 0 0
410 1 1.5415950665964102 19.459738507022898 7.097814526918003 0 0 0
411 1 1.3729648283907574 17.955560297823062 8.972858388779585 0 0 0
413 1 3.3616251081582957 17.811772691593546 6.877031922003237 0 0 0
473 1 14.203399661772233 3.311193944999182 10.606345867829402 0 0 0
450 1 16.090560525549378 1.7615586728551755 10.513822509852998 0 0 0
485 1 3.5183094107017543 6.9621795633874966 10.602869224550735 0 0 0
458 1 1.583286975405252 5.321121218584634 10.610633486456415 0 0 0
462 1 5.228920128223731 5.072418351560364 10.499628571670115 0 0 0
489 1 7.105589647608798 6.91322441534945 10.488195011244327 0 0 0
470 1 12.349186569027061 5.134039496025824 10.601232142903 0 0 0
474 1 15.859578540361179 5.147403723719824 10.519560826861728 0 0 0
509 1 3.435489411394397 10.649590570218969 10.466587531945356 0 0 0
141 1 17.923417039514774 17.7745224477667 -0.1254006555407372 0 0 0
482 1 1.7278207771300378 8.80111668343947 10.567447311179945 0 0 0
510 1 5.327981592997802 12.585758144135967 10.382972539823733 0 0 0
505 1 0.17019697389678612 10.516662308677876 10.575556150762946 0 0 0
533 1 3.38731524949427 14.15908126898432 10.54361067211182 0 0 0
538 1 8.99358055850322 16.360097900424933 10.623813690805244 0 0 0
561 1 7.142248410647407 17.86424363174025 10.526527381038635 0 0 0
137 1 14.177065210164828 17.854644180158544 -0.06674156033370338 0 0 0
570 1 16.025749440247644 19.739691501854665 10.617301206619691 0 0 0
2 1 1.6316475238282506 1.465907261803453 0.1446046694581966 0 0 0
1 1 -0.11066127841441187 21.201115047297144 -0.07346450182039632 0 -1 0
53 1 3.2957474057147174 7.150275127288225 0.00963473297864681 0 0 0
30 1 5.2425829139470075 5.0674923939567105 -0.09276759622992614 0 0 0
57 1 7.055444615288217 7.009346884688976 -0.07313906231491529 0 0 0
61 1 10.51156522954645 7.037359594666508 0.12363683596638708 0 0 0
38 1 12.464399565975615 5.314009959912021 -0.11395175685632353 0 0 0
34 1 8.645331237097633 5.196584020107872 0.047644315324177455 0 0 0
69 1 17.714811775056425 7.122679356949857 -0.09287421549685604 0 0 0
50 1 1.6097778681036137 8.905897063637331 0.16129877283667327 0 0 0
77 1 3.30433430576752 10.635877002704168 -0.03583767330318466 0 0 0
81 1 6.820358503057231 10.647302377180813 -0.04556679533122576 0 0 0
78 1 5.178610724893272 12.38876359050499 -0.08817246206820073 0 0 0
62 1 12.469057841782162 8.546539090551285 0.09623094471016458 0 0 0
94 1 19.76958548937302 12.578239054810165 -0.12148269301817294 0 0 0
105 1 7.180353448570867 14.155262792798036 -0.07612501039164243 0 0 0
114 1 15.936105204181361 16.084415170027633 -0.017323067967240036 0 0 0
118 1 19.76843420122119 16.069412281253925 0.03996773639987339 0 0 0
440 1 3.4374625137306563 1.6967392052576935 12.499964556582665 0 0 0
459 1 1.5657383131435214 3.4370965993458427 12.477200795684505 0 0 0
578 1 1.714948398811575 1.753663997426176 14.374951816378578 0 0 0
605 1 3.4776834729101154 3.7910235080725196 14.473404014779586 0 0 0
436 1 -0.1236632514179298 1.5617942829564933 12.299627328381288 0 0 0
603 1 1.909913609728827 3.664281680620641 16.020567900339685 0 0 0
577 1 21.229252375556566 -0.007800618352995337 14.107424445202838 -1 0 0
584 1 3.541903706412435 1.7080706852667245 16.005201061617385 0 0 0