LAMMPS data file via write_data, version 29 Oct 2020, timestep = 300000

864 atoms
1 atom types

-0.09528850012443968 21.35928850012356 xlo xhi
-0.09528850012443968 21.35928850012356 ylo yhi
-0.09528850012443968 21.35928850012356 zlo zhi

Masses

1 58.933

Atoms # atomic

8 1 3.5944046870948014 1.7969906025674014 1.6370279244512318 0 0 0
27 1 1.7692769010349556 3.5181501456338777 1.6412535308631369 0 0 0
146 1 1.7932915664199565 1.7009290585079617 3.3997050629150607 0 0 0
173 1 3.447745466981 3.4871572602990106 3.4398169665643197 0 0 0
169 1 0.09475436343471386 3.499410439101585 3.643226117868733 0 0 0
149 1 3.4682781104966987 21.35021097277527 3.361814619849594 0 -1 0
4 1 -0.08413142899121842 1.7129082526637986 1.6680195544277576 0 0 0
3 1 1.6339432110211085 -0.0416339960128756 1.5492736339767774 0 0 0
152 1 3.3040975417210654 1.713039413277713 5.114902137179704 0 0 0
148 1 0.06299037891325157 1.6714583999229062 5.26460008015602 0 0 0
12 1 6.893690641545333 1.763575136735846 1.5869378707159307 0 0 0
31 1 5.379555731150921 3.722411023641223 1.737289499416093 0 0 0
150 1 5.347041943682716 1.6643578099728011 3.370915387610856 0 0 0
177 1 6.961842526482772 3.5355686103649324 3.6252109234374044 0 0 0
7 1 5.421741079201325 21.22314407687699 1.653672715475179 0 -1 0
175 1 5.325026785368354 3.5129485473519213 5.342768632351329 0 0 0
433 1 -0.09507463968258278 0.008494933592949394 10.443829063025856 0 0 0
16 1 10.523465935096212 1.7064080967537467 1.7949275795209174 0 0 0
35 1 8.762973193312858 3.4439429254353815 1.6886151030263894 0 0 0
39 1 12.29931835104413 3.4746267934870585 1.5826898513782166 0 0 0
154 1 8.762858596160129 1.660980660415759 3.5308976957032234 0 0 0
158 1 12.374482348113947 1.581859338134745 3.5118311489262686 0 0 0
181 1 10.55813899806842 3.4551055210425115 3.5979565251271866 0 0 0
311 1 19.566703452384708 21.31606319071204 8.809587249864006 0 -1 0
15 1 12.219704607315771 0.0750011937364507 1.5989683349732164 0 0 0
155 1 8.810433488173842 21.30543402620902 5.143013825695563 0 -1 0
160 1 10.6120385649778 1.6766607622154281 5.259444030560085 0 0 0
183 1 12.351221914099778 3.4483183492266116 5.37171982071969 0 0 0
287 1 19.610680634425357 17.84974030419813 5.355201124132142 0 0 0
37 1 10.536584631439762 3.3205139654005613 -0.05859527517527592 0 0 0
20 1 14.032460038988177 1.843543177290594 1.7365344032188148 0 0 0
43 1 15.85121027298793 3.4489890459226715 1.7794874117546666 0 0 0
162 1 15.855973191592076 1.6591255959260514 3.479527664419899 0 0 0
185 1 13.913973880389376 3.6073884807029453 3.4695737668080624 0 0 0
19 1 15.941093583197702 -0.001445110971362018 1.6503858767673307 0 0 0
164 1 14.266663026492848 1.7569629581559432 5.21321990604096 0 0 0
17 1 14.171872433841095 21.279319761150866 0.018921910361711883 0 -1 0
288 1 17.854311120875803 19.596607354984453 5.181757563830343 0 0 0
429 1 17.71885955485364 17.693242053681658 7.083585603566366 0 0 0
24 1 17.99538328003776 1.605381376014021 1.7873834957224135 0 0 0
47 1 19.442428522803578 3.4664578169782336 1.931260724579392 0 0 0
166 1 19.588925971667393 1.6824971634028472 3.572136295037247 0 0 0
189 1 17.687891723741654 3.5374749940941563 3.5480656766995233 0 0 0
168 1 17.800841719264124 1.6387704668648682 5.217843176445934 0 0 0
22 1 19.593179014567035 1.6573286542367254 -0.01213720010148056 0 0 0
32 1 3.6083979985253145 5.419847911795399 1.651997620466443 0 0 0
51 1 1.8044928085549636 7.065118887689721 1.6006969215768425 0 0 0
170 1 1.9094228388247747 5.423924973755939 3.454250232070203 0 0 0
197 1 3.5093897619415024 7.03890746633928 3.4281715854173243 0 0 0
28 1 -0.09005891119719862 5.328881667013317 1.6649608340855329 0 0 0
193 1 0.11962991189742492 7.077947550090565 3.460963733196321 0 0 0
430 1 19.5576154668312 19.653924001094875 6.9946482301452875 0 0 0
431 1 19.626883191350576 17.903444512442693 8.770906723344199 0 0 0
36 1 7.093088425110229 5.516978698968106 1.6773525396529072 0 0 0
55 1 5.243385163905987 7.295545428715665 1.6611907707171836 0 0 0
174 1 5.172418827391431 5.316366177902971 3.559362846983456 0 0 0
201 1 7.1771576448038275 7.195610263080429 3.497325033321302 0 0 0
432 1 17.794209089421265 19.43411775596033 8.815562265184667 0 0 0
180 1 7.251830187356011 5.307936017632324 5.217901058663598 0 0 0
40 1 10.668971731532734 5.222317228559588 1.4034548789728063 0 0 0
59 1 9.055254188218868 7.089994175582883 1.6858227258000633 0 0 0
63 1 12.358336954749214 7.122581544039608 1.531548375043344 0 0 0
178 1 8.795509158297673 5.298120783006298 3.4023659137540316 0 0 0
182 1 12.234081457208994 5.246387423766622 3.2959539677082916 0 0 0
205 1 10.576214359609748 7.169477900207965 3.3898794209755243 0 0 0
207 1 12.422567175372143 6.9903559161555755 5.034182164524488 0 0 0
307 1 15.888759755501626 21.27822131859687 8.734522508190853 0 -1 0
44 1 14.188172486758718 5.18350486125386 1.56882377669773 0 0 0
67 1 15.866960419660366 7.224485340507182 1.64780735495751 0 0 0
186 1 15.828374340106405 5.244833453550845 3.562118582999998 0 0 0
209 1 14.169493415012283 6.9923566029281226 3.3609832421464314 0 0 0
42 1 15.982779677070607 5.076562892385563 -0.021396198900564642 0 0 0
211 1 15.857967213358144 6.950228574970291 5.297030084648443 0 0 0
284 1 14.262240878404771 19.59288395093463 5.221584120838216 0 0 0
172 1 0.0565994485385275 5.333950626079184 5.260611527727845 0 0 0
48 1 17.662519202465013 5.144569586940047 1.7319057225941414 0 0 0
71 1 19.52841463836582 6.926905967172656 1.8714534751432408 0 0 0
190 1 19.58382821283519 5.061417588397602 3.5986678033244472 0 0 0
213 1 17.795023134622017 6.9051493147045715 3.4743748625560884 0 0 0
69 1 17.834810919621834 7.0660825121348605 -0.0787761684113545 0 0 0
46 1 19.48309002601095 5.203831032649697 -0.06287015796310155 0 0 0
192 1 17.68958357791014 5.124308661456335 5.334151671895723 0 0 0
56 1 3.4924959782769314 8.895859222985186 1.7881750100866316 0 0 0
75 1 1.8260757466604394 10.56993513735572 1.7759964123701042 0 0 0
80 1 3.346754356237214 12.468546320982721 1.653180960823331 0 0 0
194 1 1.9068084645529169 8.881295853125913 3.560141353016894 0 0 0
218 1 1.6528602349867816 12.313826346023717 3.533124691006207 0 0 0
221 1 3.496620543577014 10.736981226533716 3.557101441653794 0 0 0
76 1 -0.03980204944880918 12.260282582784955 1.6632538299834563 0 0 0
219 1 1.6818452914683364 10.5017991090919 5.310993488114527 0 0 0
220 1 -0.003195953338849561 12.355552358908517 5.32277439142668 0 0 0
570 1 15.955757896179186 19.388197072358818 10.493247772039314 0 0 0
50 1 1.7662168970263006 8.8496432080035 -0.04857275481739379 0 0 0
60 1 7.1466531291989694 8.908571901038467 1.6498273846244627 0 0 0
79 1 5.305050141535166 10.747035137434047 1.740882275082747 0 0 0
84 1 7.186231469931135 12.533902701849359 1.7495613463379458 0 0 0
198 1 5.3144841974511055 8.787457365851854 3.495430790626477 0 0 0
222 1 5.364788769863772 12.370894164298583 3.370481113848273 0 0 0
225 1 7.179230878535487 10.545727021225987 3.5624026812946346 0 0 0
223 1 5.444579553471536 10.762914449919405 5.311746002141618 0 0 0
204 1 7.056189536817278 8.772359003604686 5.356575454182976 0 0 0
228 1 7.169715118045066 12.600094457921644 5.474857043737911 0 0 0
81 1 7.015928352688745 10.564127012055213 -0.045246312630372265 0 0 0
78 1 5.377791570364254 12.52499629466278 0.004030108161045376 0 0 0
64 1 10.51515811209622 8.9030594364367 1.6547238897117236 0 0 0
83 1 8.8053548122896 10.709483136298298 1.7336284876759984 0 0 0
87 1 12.30045218092402 10.67101573579616 1.6174033581641087 0 0 0
88 1 10.535817723139722 12.563414821414284 1.5096581110629885 0 0 0
202 1 8.901059961432212 8.946809106053287 3.4361565067561752 0 0 0
206 1 12.257504655764759 8.815944738738445 3.375872997397066 0 0 0
226 1 9.046354891561613 12.355104079328402 3.5741281941903162 0 0 0
229 1 10.870486290796016 10.787738373902842 3.577505102223022 0 0 0
230 1 12.47154976736561 12.505163088290804 3.3207974921304713 0 0 0
232 1 10.623953415288483 12.50844710050215 5.458322022350074 0 0 0
86 1 12.377305316397889 12.567636786774834 -0.036596404698350814 0 0 0
425 1 14.176814978172354 17.622117666162495 7.029674773356912 0 0 0
231 1 12.485150273655877 10.63936401782915 5.248643985079504 0 0 0
68 1 14.121445129240472 8.919034424629855 1.4188180468106344 0 0 0
91 1 15.995462599719694 10.599048784482545 1.5898847180450106 0 0 0
92 1 14.131556073890556 12.557674789741622 1.4821953256248876 0 0 0
210 1 16.06206746136936 8.811800701982923 3.547404201034634 0 0 0
233 1 14.113833138683217 10.496748613326272 3.3538614681225454 0 0 0
234 1 15.931847052203672 12.35144955288783 3.330423140028626 0 0 0
426 1 15.8842854508442 19.427247861433216 7.04124470510777 0 0 0
212 1 14.18055902703872 8.720983137363996 5.108091149924357 0 0 0
52 1 -0.010048715663334207 8.884175290468358 1.7911939526002687 0 0 0
217 1 0.050384813614957835 10.624767845942388 3.6327743743678327 0 0 0
72 1 17.71251190134845 8.739873452389958 1.82009625680241 0 0 0
95 1 19.616353039533003 10.598885506588328 1.7581691933884414 0 0 0
96 1 17.90428716837269 12.566640215771773 1.713614571748806 0 0 0
214 1 19.603550811294596 8.872355904687224 3.5052450557952692 0 0 0
237 1 17.894061434733928 10.827154952696162 3.4215928728627256 0 0 0
238 1 19.655262065253392 12.475729449675503 3.4931776229254288 0 0 0
239 1 19.598154447114403 10.480992747037144 5.231935465327297 0 0 0
196 1 0.0317559388618065 8.739123487163141 5.183117282406279 0 0 0
240 1 17.751025282358242 12.529037600606937 5.283319945048162 0 0 0
99 1 1.58090910540974 14.160619455669014 1.7685979175524689 0 0 0
104 1 3.510300418475036 15.772510383502778 1.6607035853934897 0 0 0
242 1 1.8754477965451561 15.88854869215767 3.5627038970011355 0 0 0
245 1 3.47515055720452 14.030215519463045 3.6077672195295363 0 0 0
100 1 21.33401411507144 15.909642825291439 1.696747882430032 -1 0 0
241 1 0.009159712338374482 14.082845363841065 3.5234684568691326 0 0 0
244 1 -0.018405786093432658 15.949934433055265 5.333986286391075 0 0 0
103 1 5.448909511397897 14.19617363666173 1.6657307283717617 0 0 0
108 1 7.020465069269388 15.997962622193885 1.7307926649744712 0 0 0
246 1 5.2965408986172005 15.78484380293668 3.287421976342042 0 0 0
249 1 7.189887961506449 14.166352865755707 3.498709869925852 0 0 0
102 1 5.2396665106103 16.091739323750154 -0.01321210975425828 0 0 0
247 1 5.218167038807931 14.009293212728968 5.236294141495262 0 0 0
107 1 8.86367944044913 14.249945028227323 1.6175452315362884 0 0 0
111 1 12.356609300008833 14.120610657392312 1.6096589222309927 0 0 0
112 1 10.522462544088125 16.040308413070697 1.659448516446986 0 0 0
250 1 8.796372988994511 15.972976033543073 3.4978576624939612 0 0 0
253 1 10.445602752208716 14.201059496634954 3.3255559831192567 0 0 0
254 1 12.44241506667728 15.91187101896378 3.5366974700734266 0 0 0
251 1 8.860951217292117 14.429070377559588 5.283243905017309 0 0 0
427 1 15.809219935989823 17.715678944199993 8.698685447736057 0 0 0
428 1 14.239688733166156 19.492737889440015 8.85962201981892 0 0 0
255 1 12.36253391302152 14.073868216761692 5.0366551367010155 0 0 0
115 1 16.082307482662326 14.247558812500133 1.740203721944474 0 0 0
116 1 14.135359305563382 15.884410197197173 1.5506968566131338 0 0 0
257 1 14.199823493412447 14.209807904477163 3.4425883899819505 0 0 0
258 1 16.013067076792627 16.099216905131154 3.437275111690294 0 0 0
259 1 15.927144769513788 14.262796576710576 5.475044035186101 0 0 0
163 1 16.000863088221653 -0.07368844024874832 5.148337099516768 0 0 0
119 1 19.50286733845912 14.20303919594749 1.6728875863125345 0 0 0
120 1 17.777724439016914 16.135323853377223 1.8536938426183465 0 0 0
261 1 17.706574921290734 14.316652772534075 3.5842323798653193 0 0 0
262 1 19.668926258046202 16.00894813578693 3.5250605615545667 0 0 0
263 1 19.54243120919383 14.288643190894124 5.33944987744565 0 0 0
264 1 17.82558043777859 16.032378600778415 5.279482684936951 0 0 0
145 1 -0.04093659580088464 -0.05332186239061798 3.4846113324922796 0 0 0
123 1 1.9189106723752758 17.596096109777214 1.7191254874246613 0 0 0
128 1 3.5186886056599866 19.66627144882463 1.5153739515429383 0 0 0
266 1 1.8684194834535395 19.46076694555893 3.420428233302685 0 0 0
269 1 3.6172198127317317 17.801700710798166 3.4795206410464914 0 0 0
265 1 0.15421564048188915 17.640505950982856 3.36857769208234 0 0 0
124 1 0.04791288186357487 19.50999977030434 1.708464685216078 0 0 0
153 1 7.074740459672381 -0.08110526344487567 3.4642682711147375 0 0 0
127 1 5.134651118859938 17.78387729352825 1.7173375141730955 0 0 0
132 1 6.864862120407252 19.540715280300116 1.5952645094747493 0 0 0
270 1 5.341132505234394 19.56300921119642 3.627603421356375 0 0 0
273 1 7.024441088104875 17.673699141445102 3.353232166271592 0 0 0
151 1 5.142963534017325 -0.04565979669611053 5.256525062605809 0 0 0
271 1 5.166161067835179 17.73988335538295 5.356664387295651 0 0 0
159 1 12.39821271963443 -0.04380400569047538 5.270247575028254 0 0 0
11 1 8.693559084381045 -0.001254387412895852 1.7700951606795805 0 0 0
157 1 10.559308190872478 -0.09396149651946928 3.4498629236907536 0 0 0
131 1 8.845968063081783 17.712636480694538 1.638327799735266 0 0 0
135 1 12.390760300253989 17.58018728741109 1.5660312304761395 0 0 0
136 1 10.603751309862288 19.55685124953413 1.7249432539645309 0 0 0
274 1 8.664066948503342 19.651661742485388 3.3044168299697034 0 0 0
277 1 10.615829286622759 17.870655658177512 3.5113315025546115 0 0 0
278 1 12.271117500616707 19.699598639214358 3.4841784307146195 0 0 0
280 1 10.694024634350907 19.479585492573946 5.315479482065988 0 0 0
418 1 8.898761034011507 19.6512761402297 6.969725911746642 0 0 0
279 1 12.414409146439747 17.749282169289295 5.302280295662295 0 0 0
275 1 8.93212578980857 17.728414622657432 5.168751668746618 0 0 0
161 1 14.222739585609029 21.267160103541443 3.4002267757002267 0 -1 0
283 1 15.951819335654843 17.785180478274647 5.275217522088168 0 0 0
139 1 15.835331470771225 17.72492910180632 1.541105009948102 0 0 0
140 1 14.04872900832793 19.58550833320322 1.5861308346341565 0 0 0
281 1 13.976582203623163 17.807899507922265 3.387074124894008 0 0 0
282 1 16.16239647970826 19.385423072440993 3.2372326530681113 0 0 0
419 1 9.033629256112771 18.011420771939797 8.792961529468174 0 0 0
167 1 19.68755219230818 0.08232015611752885 5.350665080730895 0 0 0
165 1 17.79901122983171 -0.04995066718291241 3.5157456782204664 0 0 0
23 1 19.67776789151719 21.333927835820454 1.842785839670434 0 -1 0
143 1 19.649169226904952 17.875975864715826 1.9822495859122786 0 0 0
144 1 17.85501448790746 19.41019032787086 1.6819327879425083 0 0 0
285 1 17.855959246605547 17.763213168354298 3.550653624767071 0 0 0
286 1 19.526012936192988 19.496258361114734 3.528187500466467 0 0 0
142 1 19.638037018565456 19.732538777067145 0.0017631274493688232 0 0 0
421 1 10.549671938322298 17.737345938747637 7.090836897629719 0 0 0
171 1 1.834636615272004 3.616159781218364 5.236371493678242 0 0 0
290 1 1.7305160893235483 1.6612773437616044 6.998374113840888 0 0 0
296 1 3.6094814773875488 1.8734710924621019 8.743136136710177 0 0 0
315 1 1.8323900326495988 3.4502446339208497 8.935499688172943 0 0 0
317 1 3.4441157000126172 3.5322756416276437 7.060840519959887 0 0 0
293 1 3.518097225408603 21.318408675318214 7.305865246752683 0 -1 0
461 1 3.65199482959548 3.5021125146607415 10.527085267560057 0 0 0
156 1 6.995822131691102 1.723497377372492 5.176819927799511 0 0 0
294 1 5.281896027882943 1.8002430409586814 7.024464029597411 0 0 0
300 1 7.199707059130407 1.7674743715657986 9.080773124658684 0 0 0
319 1 5.365708185753146 3.432250898198058 8.801749361100322 0 0 0
321 1 7.0210767828375165 3.375663687010758 6.979862976173517 0 0 0
422 1 12.459800766491322 19.64201856339703 7.054981366596788 0 0 0
179 1 8.920089147680821 3.520482107607359 5.388709419101278 0 0 0
299 1 8.941361808479668 21.351698806765956 8.851279826508694 0 -1 0
303 1 12.629890674386399 -0.06275835340610003 8.733848934675583 0 0 0
301 1 10.57214140194632 21.349860773435218 6.945258397326695 0 -1 0
298 1 8.950848905728941 1.7353583503347305 7.232817214470459 0 0 0
302 1 12.328753153600802 1.6077153906823907 7.048762516359999 0 0 0
304 1 10.688108637616454 1.667815072878329 8.849449788230032 0 0 0
323 1 8.615977385847495 3.6035535431165524 8.890689329452002 0 0 0
325 1 10.655725452703056 3.3992887574914223 7.163942132015806 0 0 0
327 1 12.483486606424533 3.696807595668023 8.85509012750197 0 0 0
442 1 8.980349975038614 1.7682583329799797 10.567641284035528 0 0 0
187 1 15.80089163151408 3.581814332615067 5.257010573566893 0 0 0
305 1 14.371735630362846 -0.03927599998838204 6.862637633173836 0 0 0
306 1 16.043641473313293 1.700141708242924 7.065348014178594 0 0 0
308 1 14.127663799346633 1.90292749166229 8.80172836097263 0 0 0
329 1 14.258100369273475 3.719710069129335 7.165916041114354 0 0 0
331 1 16.031297127048724 3.5186366168594243 8.8240957043378 0 0 0
423 1 12.426009683067695 17.590668882422158 8.783085297165943 0 0 0
473 1 14.138053520037529 3.632852771162532 10.541126477563486 0 0 0
449 1 14.31516283216168 21.229936365470707 10.615501005983745 0 -1 0
191 1 19.59217892257791 3.4231067298507134 5.383301263657836 0 0 0
292 1 -0.03621218928184078 1.9786390887737668 8.754302145083058 0 0 0
313 1 0.181577386671119 3.6772910381588857 7.105475975031707 0 0 0
309 1 17.850396193827212 21.182336198187006 7.150823701873832 0 -1 0
310 1 19.6166895724038 1.6007526351545833 7.100450984367921 0 0 0
312 1 17.895306360321197 1.623386293013449 8.859913747427695 0 0 0
333 1 17.822417911932497 3.3743306981283063 6.93140711808813 0 0 0
335 1 19.58916758886254 3.3933021617697485 8.668608930836067 0 0 0
477 1 17.790553380224416 3.4645443095575126 10.625624788354896 0 0 0
424 1 10.921348059223195 19.560544942870795 8.766936908214856 0 0 0
562 1 9.011284025830548 19.551084263348713 10.574899764465076 0 0 0
176 1 3.580215480788903 5.336050910930994 5.490668925877935 0 0 0
195 1 2.0954960985423314 7.118369430202757 5.159917010050806 0 0 0
314 1 1.718912358501975 5.449438471441235 7.2730196280892905 0 0 0
320 1 3.569627011779936 5.20116595794731 8.997438704021734 0 0 0
339 1 1.7247954540873545 7.0164074946309585 9.021186151418243 0 0 0
341 1 3.6056616604987637 7.065524365105256 7.319598139818935 0 0 0
199 1 5.17684219137323 7.2053098979560914 5.320546857480645 0 0 0
318 1 5.269613951322694 5.439331290108878 7.206784508223761 0 0 0
324 1 7.097771996958329 5.324939732049157 8.915288870354734 0 0 0
343 1 5.364173241870516 7.035807474944204 9.095064917639391 0 0 0
345 1 7.102908564082762 7.082375557008069 7.123395851579853 0 0 0
558 1 5.198931615486174 19.472938129862502 10.57458696999255 0 0 0
276 1 7.0770581849759004 19.609498650365563 5.185274361026383 0 0 0
184 1 10.626680314913097 5.383798975572317 5.364074035803084 0 0 0
203 1 8.862807704835626 7.144998776731682 5.348578517449919 0 0 0
322 1 8.646487910141593 5.264525926822286 6.990401632371508 0 0 0
326 1 12.51251509519187 5.2453221455184815 7.00350497919439 0 0 0
328 1 10.581731310344491 5.296278013878635 8.934050207860643 0 0 0
347 1 8.868159377248372 7.045142813430774 9.045317429949986 0 0 0
349 1 10.530596363678297 7.103258729767191 7.176876357456714 0 0 0
351 1 12.31123876136614 6.954655695440249 8.982673246119766 0 0 0
493 1 10.564314702388524 7.122309929124095 10.556957766007336 0 0 0
188 1 14.042581728622713 5.290030641515913 5.279318010219708 0 0 0
330 1 16.08014245070177 5.335787239689893 7.09197806137207 0 0 0
332 1 14.360438964997812 5.413754305802237 8.808882269073283 0 0 0
353 1 14.191126686841011 7.154556414986788 6.976823368919126 0 0 0
355 1 16.02322072790889 7.224408753280471 8.686428144295897 0 0 0
497 1 14.313272674338382 7.078249942581066 10.555352511002624 0 0 0
420 1 7.162205617513688 19.68685488759401 8.863463525138624 0 0 0
316 1 21.264386325681155 5.380405319571007 9.05179828335982 -1 0 0
337 1 21.350041449345618 7.0515821922747906 7.12899758767448 -1 0 0
215 1 19.804676500499863 6.9655533822353215 5.090657148859328 0 0 0
334 1 19.624497481035846 5.262506294725111 7.031099306245699 0 0 0
336 1 17.72764879915788 5.269305499378412 8.75074615573468 0 0 0
357 1 17.889989343170473 7.061910377722762 6.957119903955031 0 0 0
359 1 19.72737282050292 7.168125621967317 8.791732865473403 0 0 0
481 1 21.268279669640705 7.211356506164857 10.561600579961357 -1 0 0
417 1 7.0952484051201345 17.85693246503952 7.097221139402389 0 0 0
224 1 3.6304105277969354 12.315251717007355 5.37340953159504 0 0 0
200 1 3.544448457996485 8.944438982627828 5.4766558019528135 0 0 0
338 1 1.8781034077463552 8.782411607024287 7.039990773601658 0 0 0
344 1 3.45319318773675 8.845741398595733 8.982940901397397 0 0 0
362 1 1.978362322710249 12.31109780798157 7.015297546379181 0 0 0
363 1 1.896623559402452 10.577199182377068 8.644472540215336 0 0 0
365 1 3.6439629661575355 10.602676102542528 7.077144736259395 0 0 0
368 1 3.394965801795161 12.460446083151195 8.965578481102558 0 0 0
415 1 5.3137193214606055 17.92174334660092 8.941074812689598 0 0 0
414 1 5.456603497530956 19.67477949664037 7.07125400751608 0 0 0
342 1 5.374377179756947 8.697987527590533 7.300580685356822 0 0 0
348 1 7.039461575255345 8.840084320138374 8.964354920007674 0 0 0
366 1 5.393750766122286 12.469702099142115 7.302378467826135 0 0 0
367 1 5.205576221293387 10.613183327376007 8.942713657194865 0 0 0
369 1 7.111737913626003 10.681648347535624 7.301684779096003 0 0 0
372 1 7.00298628395395 12.46894120509224 9.039545550086357 0 0 0
297 1 7.071329244929912 -0.05051900382426311 6.981036790429529 0 0 0
208 1 10.445855559120412 8.997689344428956 5.239136173446827 0 0 0
227 1 8.79337483870289 10.75462974620453 5.51282966485828 0 0 0
346 1 8.883555075036469 8.847957462452946 7.237597860173059 0 0 0
350 1 12.30022924264733 8.719335429052057 6.924130178828026 0 0 0
352 1 10.589324384339863 9.027973980810309 8.796317440938516 0 0 0
370 1 8.897701821351298 12.476894657767845 7.192904142473244 0 0 0
371 1 8.697464813517085 10.689590492148255 9.048112622621549 0 0 0
373 1 10.754007017321133 10.730260837217797 7.117757898405473 0 0 0
374 1 12.444178060854497 12.554349516710843 7.137522291592065 0 0 0
375 1 12.494064373741972 10.594748978028468 8.763097449301966 0 0 0
376 1 10.66862400339772 12.203805936387264 9.06011104625684 0 0 0
494 1 12.262347261881242 8.76311703793614 10.604460998557967 0 0 0
236 1 14.116844626141004 12.320907407533397 5.192729695002313 0 0 0
235 1 15.998402778080585 10.46029996491 5.278330930152164 0 0 0
354 1 15.832727787272939 8.895185497193626 7.088703612213574 0 0 0
356 1 14.040839788708078 8.728599587862426 8.763246265856028 0 0 0
377 1 14.21036758938768 10.490043916990095 6.991713156114313 0 0 0
378 1 16.014822563032215 12.1777683750387 6.973086303478089 0 0 0
379 1 15.971296976807256 10.589915082091276 8.87929744816041 0 0 0
380 1 14.293396888685308 12.176687036401665 8.836493001142227 0 0 0
295 1 5.407818946181702 0.04166613564521171 8.784138701493488 0 0 0
216 1 17.707419554121856 8.799119519461588 5.261416066562979 0 0 0
361 1 21.340614793281567 10.53480074119566 7.064487816931811 -1 0 0
364 1 0.04780949702441717 12.325307921548543 8.765135639631668 0 0 0
340 1 21.226624079886534 9.017305654823927 8.67903682627406 -1 0 0
358 1 19.61279922329348 8.832021065245009 6.89690930565082 0 0 0
360 1 17.905343789944517 8.858178290559954 8.72950192958021 0 0 0
381 1 17.774737094593533 10.471041785804303 6.972316412999997 0 0 0
382 1 19.56556014728349 12.341440051839607 7.055934307806895 0 0 0
383 1 19.490988157912767 10.650950396665621 8.670598532177035 0 0 0
384 1 17.75043213285963 12.327237678295498 8.712004194867227 0 0 0
502 1 19.58215838212715 8.727771270661943 10.624453321350607 0 0 0
243 1 1.7489935222930413 14.044715542406422 5.385744358140098 0 0 0
248 1 3.5277501072953963 15.920194856145347 5.434174589083259 0 0 0
386 1 1.8544578713837618 16.059048796556695 7.05184236494642 0 0 0
387 1 1.8417147814704333 14.290529215533546 8.90070053579553 0 0 0
389 1 3.7000316296187625 14.132964101230979 7.069546696398228 0 0 0
392 1 3.515106422945272 16.03869542901984 8.890135817047321 0 0 0
530 1 1.746091125438438 16.08164628960459 10.582694349274757 0 0 0
385 1 -0.010576461319971905 14.13959564076541 7.093076013979744 0 0 0
252 1 6.912079690549126 16.08544290727773 5.291393917240041 0 0 0
390 1 5.325507674536344 16.12418738992456 6.983004115150821 0 0 0
391 1 5.129530220333892 14.234914082053203 9.016353292889107 0 0 0
393 1 7.097807746848356 14.303896792212859 7.077306051651749 0 0 0
396 1 7.02737815376766 16.056833685604097 8.79446426025339 0 0 0
267 1 1.889328115453764 17.69092525452562 5.304085830732891 0 0 0
256 1 10.7425871381932 16.055953360877012 5.233311586510638 0 0 0
394 1 8.78745914208747 16.101220214152605 7.084106209269181 0 0 0
395 1 8.804943071306376 14.267763217056746 8.873906027999789 0 0 0
397 1 10.733177190483381 14.155484535892949 7.040339787403591 0 0 0
398 1 12.466542281872922 15.797559034179587 7.094380524891651 0 0 0
399 1 12.368974228945824 14.036028075756734 9.090753670813331 0 0 0
400 1 10.569841737702852 15.845737511668021 8.789643130704333 0 0 0
291 1 1.6218772818595808 -0.0020181778961543273 8.79612668098643 0 0 0
260 1 14.177780911712842 15.967694674085909 5.147349433870741 0 0 0
401 1 14.173211699053965 14.082842437616474 7.035005917266429 0 0 0
402 1 15.858408171093002 15.955728707897784 7.0322617688019635 0 0 0
403 1 15.853123457764557 14.041609796908405 8.764248524214896 0 0 0
404 1 14.055278361793913 15.931883809800873 8.945091699399226 0 0 0
557 1 3.55568039378382 17.831601841095594 10.619131925991331 0 0 0
408 1 17.838241299541895 15.907273598180154 8.940012988050864 0 0 0
407 1 19.616494716958655 14.081772470408758 8.72771645570432 0 0 0
406 1 19.512337199808343 16.02822278673252 7.15719798702996 0 0 0
405 1 17.679810265982333 14.163578163325926 7.102397152153374 0 0 0
388 1 21.302874154952033 15.798913718354873 8.77146441845389 -1 0 0
529 1 -0.02845003773384036 14.056552627114861 10.579182873368568 0 0 0
147 1 1.7381176667867082 -0.06260489585732643 5.228889348254206 0 0 0
289 1 -0.0941138967564144 21.289840743296775 6.793757779960008 0 -1 0
412 1 -0.06656121611049493 19.71702982666019 8.890886246822966 0 0 0
553 1 21.34118494659565 17.71770059153681 10.485483001511287 -1 0 0
409 1 0.04668720220512787 17.654473560148677 7.158925046212311 0 0 0
272 1 3.5924496704269093 19.627037712317858 5.402978335552659 0 0 0
268 1 -0.0873667263837927 19.386093904206458 5.021847686383717 0 0 0
413 1 3.692058874896066 17.884268479422957 7.13849705893027 0 0 0
410 1 1.6560500625808563 19.59873994734963 6.87082182686249 0 0 0
411 1 1.6475277668441979 17.89245070714262 8.737433223795541 0 0 0
416 1 3.5231423293937407 19.422797205363093 8.784545088285967 0 0 0
434 1 1.722349639647295 1.5295418358195068 10.597120670036517 0 0 0
437 1 3.331443249614009 21.190617549408326 10.552188872527864 0 -1 0
469 1 10.604903566708122 3.5586749318170146 10.498543544528593 0 0 0
446 1 12.259000045861729 1.4246553648193525 10.595770634691473 0 0 0
501 1 17.67494177573135 7.085746408753772 10.5052034458879 0 0 0
482 1 1.6204688549748223 9.010699383071248 10.551913025246813 0 0 0
518 1 12.400431539785137 12.214753407945683 10.604944866391023 0 0 0
521 1 14.144590140254035 10.367108168052434 10.61947827475625 0 0 0
526 1 19.501834948327314 12.556940218953567 10.524550484978285 0 0 0
534 1 5.265199779570849 16.099184134672285 10.54234648439111 0 0 0
545 1 14.229082256679925 14.140831975297015 10.54073409362824 0 0 0
549 1 17.71429124881534 14.12237202106948 10.522459869895751 0 0 0
565 1 10.664643108225391 17.839588573221203 10.536091249931909 0 0 0
566 1 12.536264564545178 19.5453968258659 10.590875109040217 0 0 0
445 1 10.733411045242502 21.222525550403695 10.616274289114076 0 -1 0
569 1 14.183933862075804 17.73005704560113 10.544030030074625 0 0 0
573 1 17.65494367661553 17.715785834134447 10.594925944962872 0 0 0
138 1 15.977071756443227 19.575661876648756 -0.09333376597047405 0 0 0
5 1 3.487583691178928 0.054617017126139644 -0.018379117309297754 0 0 0
2 1 1.5761504675072338 1.6414710956576393 -0.05210538427195033 0 0 0
25 1 21.333078735053157 3.4187571482194237 0.09328219454689446 -1 0 0
6 1 5.342322829684794 1.7707219437249104 -0.09266691397170135 0 0 0
26 1 1.6885301370282058 5.023764780096785 -0.012764988112319742 0 0 0
70 1 19.5624209682351 8.829211604595406 -0.07111524025096472 0 0 0
93 1 17.741581086057767 10.58274746099612 0.08638721039777408 0 0 0
94 1 19.51999213801943 12.305642377376785 -0.09036517625107265 0 0 0
118 1 19.55684281457013 16.150075916893933 0.0037868507315366173 0 0 0
97 1 -0.07373947527026914 14.16191175051096 -0.06061175170568234 0 0 0
126 1 5.0039583398968395 19.557050807986915 -0.06134528913738535 0 0 0
121 1 21.29395995115543 17.795414093053473 0.007970748803174388 -1 0 0
440 1 3.55468551734242 1.4745935619736872 12.374109375119835 0 0 0
459 1 1.6973112177057779 3.414641596990364 12.272041850172728 0 0 0
578 1 1.7813084303147795 1.873260888761104 14.247318098623277 0 0 0
605 1 3.3349522337488064 3.46059784257909 14.203769933536286 0 0 0
21 1 17.88079009093858 -0.03336155033778354 21.28572760598816 0 0 -1
436 1 -0.03911608237176464 1.6970483744568667 12.305852036750156 0 0 0
581 1 3.589103723591812 21.34601421498297 14.260574630129517 0 -1 0
435 1 1.5885513221878111 21.32736186801354 12.250278784714027 0 -1 0
603 1 1.659153821014978 3.451269713989477 16.061354030548312 0 0 0
584 1 3.6587362127237704 1.7306882982792229 16.038807697602646 0 0 0
861 1 17.794470319562276 17.6929368276675 17.82808095534514 0 0 0
444 1 7.030103023696756 1.8538770725917497 12.346785622715949 0 0 0
463 1 5.219417620017551 3.5586782980875866 12.482524779807754 0 0 0
582 1 5.21943265122344 1.6974699249896863 14.071646143405117 0 0 0
609 1 7.091099746529558 3.391616094037779 14.29736235415707 0 0 0
607 1 5.352117764581549 3.4629504243755367 15.905143571631832 0 0 0
438 1 5.269188755769163 1.7468416094225003 10.689010558378866 0 0 0
448 1 10.829381579693269 1.5616157644493358 12.471163816729492 0 0 0
467 1 9.01278430523214 3.470455379165876 12.269968779676596 0 0 0