LAMMPS data file via write_data, version 29 Oct 2020, timestep = 300000

864 atoms
1 atom types

-0.2817622043763244 21.54576220437542 xlo xhi
-0.2817622043763244 21.54576220437542 ylo yhi
-0.2817622043763244 21.54576220437542 zlo zhi

Masses

1 58.933

Atoms # atomic

27 1 1.4701013578060769 3.258803160191846 1.3305018691866815 0 0 0
146 1 1.9348233763321407 1.6385053477187108 3.311899606163492 0 0 0
173 1 3.5173856921862177 3.4562865721967695 3.0528563205254393 0 0 0
8 1 3.539915210784385 1.830133335322722 1.2012734968840069 0 0 0
4 1 -0.15768769725822185 1.3833626761528595 1.386011284948364 0 0 0
152 1 3.295029486287533 1.6183287753520021 5.343364379211683 0 0 0
287 1 19.923950637263573 17.645424744539397 5.2672528167278525 0 0 0
12 1 6.971096683784116 1.9577821793875048 1.2568778708474027 0 0 0
31 1 5.075733350270511 3.309571075955075 1.2599918608540304 0 0 0
150 1 5.248356407546578 1.4403144704986908 3.4707069185736494 0 0 0
177 1 6.858634552787842 3.4093122379206786 3.5588121893555975 0 0 0
175 1 4.936456002780301 3.2505052771065963 5.1217064546401945 0 0 0
151 1 5.192444592948889 -0.210625149490289 5.097380856059973 0 0 0
156 1 6.800286431096936 1.508930259503318 5.413860555830165 0 0 0
153 1 6.776669311787144 21.142250954331615 3.3923529033139226 0 -1 0
288 1 17.943025604513636 19.58511967443468 4.933966019456319 0 0 0
35 1 9.009544549304378 3.5266953991923855 1.3483984431970306 0 0 0
154 1 8.759727035809963 1.5890423728698064 3.342150881356683 0 0 0
16 1 10.469595551326586 1.567768019510166 1.8983905837215018 0 0 0
181 1 10.41016237345388 3.585391467220378 3.242046767705323 0 0 0
158 1 12.641909328477208 1.5283477773799161 3.197389403221012 0 0 0
39 1 12.411305582146216 3.4149281217426526 1.60412207115916 0 0 0
157 1 10.662459301571635 -0.16453561459975252 3.372910724510752 0 0 0
167 1 19.736653200747803 21.34900984896892 5.539741633682557 0 -1 0
15 1 12.43570060964556 -0.1802401264781755 1.697423944287591 0 0 0
58 1 8.872669016487336 8.69488968760612 -0.1983768555764146 0 0 0
20 1 14.345555025664666 1.4106074364200372 1.5076351360469153 0 0 0
43 1 16.261005083673393 3.0606298337663884 1.320391925521898 0 0 0
162 1 16.09317850793133 1.1259321535597042 3.2379345764329757 0 0 0
185 1 14.256613281135373 3.0729516759540383 3.2250346615982086 0 0 0
161 1 14.28385444482187 21.386540589219628 3.159853952942329 0 -1 0
309 1 18.006796298109577 21.433480510591718 6.717437226704516 0 -1 0
19 1 16.113634524978497 21.29323236785631 1.6255538099210802 0 -1 0
187 1 16.12000460115175 3.0331231520490656 5.10313444477517 0 0 0
81 1 6.744482644524031 10.564524926281118 -0.09662614579159201 0 0 0
169 1 -0.2449952160641189 3.250271462961889 3.371303304136464 0 0 0
432 1 17.993679615249988 19.61025984912896 8.842486259435555 0 0 0
189 1 17.616561129611796 3.0277423155795167 3.5950089496936086 0 0 0
24 1 17.909134968279194 1.4688978610310823 1.5326920284291554 0 0 0
47 1 19.915301365577054 3.3027678963845086 1.5408521905974022 0 0 0
166 1 19.675775864769765 1.6334613907403919 3.3265359931984326 0 0 0
165 1 18.070933225824238 21.537619427918436 3.3758775709346036 0 -1 0
23 1 19.854001362025635 -0.2548146992086163 1.6222047864873133 0 0 0
429 1 17.977969127884492 18.018884302807386 6.992289732037601 0 0 0
32 1 3.3285575553970834 5.178814952304905 1.4291644940940935 0 0 0
51 1 1.1114237355521823 7.066447243953909 1.3430306752424659 0 0 0
170 1 1.3683062416161316 5.227242398801006 3.081989673295497 0 0 0
197 1 3.4269373450987124 6.888117123186816 3.208364591465807 0 0 0
193 1 21.22593268018467 6.680893784688025 3.4396284255638596 -1 0 0
176 1 3.4276771803997126 5.099084002322902 4.935653442578922 0 0 0
195 1 1.78591833824055 6.8562669145350155 5.012290065969635 0 0 0
36 1 7.089084739633688 4.826484375724426 1.6595865193502195 0 0 0
55 1 5.176775345400785 6.915438841654503 1.58202718594967 0 0 0
174 1 5.119580337559715 5.238386886285378 3.294320185672471 0 0 0
201 1 6.9677973923899055 6.991177798382498 3.316697369203539 0 0 0
199 1 5.142213562501087 7.216896542120023 5.10354036083228 0 0 0
180 1 6.772233711626814 5.1551375480937445 5.546316756583436 0 0 0
106 1 8.77939581266399 16.132748857252643 -0.07830478203658553 0 0 0
178 1 8.545450923412046 5.017762960839785 3.6059683604341704 0 0 0
59 1 8.666435246080141 6.734411759572725 1.6005661623859544 0 0 0
40 1 10.7292981488871 5.356671793281567 1.4757920504697974 0 0 0
205 1 10.915795498667581 6.600422061851113 3.392627742134154 0 0 0
63 1 12.804430616132917 6.812860528144488 1.334306118864412 0 0 0
182 1 12.725469513414367 5.084106034971895 3.0981867946967374 0 0 0
184 1 10.316552366490534 5.152429215144599 5.21536754263985 0 0 0
44 1 14.6371300488689 4.866999904599963 1.5144485654021003 0 0 0
67 1 16.250761767638277 6.751363402513916 1.1699527015922604 0 0 0
186 1 16.008909282477948 5.056641266707554 3.598494654776491 0 0 0
209 1 14.233819597351292 7.082799662344564 3.2723994534538994 0 0 0
211 1 16.03587404752772 7.177376545473283 5.01418576081222 0 0 0
430 1 19.893642020763707 19.474543621466747 7.233932446054579 0 0 0
518 1 12.443755937207442 12.420269897134103 10.459128313391483 0 0 0
28 1 21.327930469005455 5.182433624149571 1.610101833045037 -1 0 0
48 1 17.877032393056826 5.001497316325062 1.5089494482549057 0 0 0
71 1 19.1077762868931 6.802886368867732 1.2513225156498637 0 0 0
190 1 19.45314920914589 4.943442338922821 3.3189001886071825 0 0 0
213 1 17.58521423249664 6.887853032558272 3.299516426968113 0 0 0
194 1 1.327592281206983 8.563924492474452 3.5046199977059613 0 0 0
56 1 3.2895794373584404 8.63265091096694 1.3648413721778325 0 0 0
75 1 1.5259340410033697 10.39632216691257 1.4348702051667173 0 0 0
221 1 3.410666475974063 10.486862769761382 3.2759609870951905 0 0 0
218 1 1.3355244222875888 12.134243500766962 3.3964256163632442 0 0 0
80 1 3.17348172770961 12.179191660815803 1.453361377862514 0 0 0
224 1 3.245661782929981 12.263122907560323 5.165269433445545 0 0 0
200 1 3.3789579057116668 8.921634327104835 5.233067194799404 0 0 0
76 1 0.0068103779697517575 12.530990375939346 1.346443023140094 0 0 0
219 1 1.6004383579461212 10.589741956215432 5.162702973206372 0 0 0
431 1 20.15035268310596 17.92003036505235 9.156293910482068 0 0 0
198 1 5.2631122189452935 8.958087501743996 3.390378032282317 0 0 0
60 1 6.917523686915238 8.597810956900197 1.3492779403520947 0 0 0
79 1 5.220466373142755 10.547120003338526 1.3638959489691145 0 0 0
225 1 7.148037998217051 10.446648097972403 3.3846532788299473 0 0 0
222 1 5.104749889822986 12.344543348780357 3.372508100396131 0 0 0
84 1 7.062289588174756 12.416620815276705 1.3625755302632445 0 0 0
204 1 7.278505642533921 9.048789457097746 5.251964915841169 0 0 0
223 1 5.400424007463944 10.644811955468297 5.075589262002363 0 0 0
126 1 5.240971387152611 19.504292018696002 -0.18075215890435825 0 0 0
526 1 19.52179309975891 12.60584836613636 10.466864998546445 0 0 0
227 1 9.139783302698248 10.551594966775133 5.168246305978762 0 0 0
202 1 8.864228089324433 8.558297745728002 2.963593923452497 0 0 0
226 1 9.105772916133578 12.102462965510457 3.4989399917693995 0 0 0
64 1 10.775771156808053 8.42409963778467 1.8104550904619612 0 0 0
83 1 8.554940505030574 10.43444533219207 1.3678515986107886 0 0 0
229 1 10.610623231169951 10.318529087601906 3.039506948813426 0 0 0
88 1 10.822287600059727 12.462767673830818 1.6831313519053668 0 0 0
206 1 12.32738984345159 8.652399494530014 3.605234272127925 0 0 0
230 1 12.362759937469143 12.220567198993388 3.35907358563322 0 0 0
87 1 12.466572508439459 10.33550674640597 1.8159652190062943 0 0 0
208 1 10.333783020349388 8.333129233569936 5.139131306738708 0 0 0
90 1 15.988603777071436 12.534505523096621 -0.028548566378168327 0 0 0
70 1 19.417445079390497 9.25955107712445 0.2343558479718798 0 0 0
117 1 17.779794009331678 14.178801031301637 -0.08452594962626142 0 0 0
10 1 8.808687054021279 1.6496675292907148 -0.07514580684639197 0 0 0
98 1 1.3085367084306885 16.069700609532582 -0.050361102455614815 0 0 0
25 1 21.49604260262768 3.4773633352290325 -0.12226473322882969 -1 0 0
210 1 15.915613008697427 9.071471760572434 2.9836732250089937 0 0 0
68 1 14.355994109570009 8.711048518690903 1.366940905744374 0 0 0
91 1 16.281222033520965 10.680412916287239 1.4942375231811802 0 0 0
233 1 14.29764328025986 10.685049845858307 2.9865012846113386 0 0 0
92 1 14.16047943607985 12.442527378922263 1.2407030792897271 0 0 0
234 1 15.942601706147578 12.52684982313178 3.563538613347902 0 0 0
212 1 14.229748237330279 9.068513383361283 5.13666859001406 0 0 0
541 1 10.766558682638394 14.212900130640378 10.51216602415549 0 0 0
236 1 14.369327982951129 11.768717956368375 5.244983311646533 0 0 0
9 1 6.845280320349649 21.46692171939519 -0.20116370116386909 0 -1 0
52 1 21.50198201345618 9.03630226717678 1.222142208434795 -1 0 0
217 1 21.452304761440956 10.683858453839456 3.3510932546924774 -1 0 0
214 1 20.010639674316533 8.567470652258146 2.927935476057311 0 0 0
72 1 17.614495869845406 8.61169379471807 1.5702054846564928 0 0 0
95 1 19.93928223141349 10.905520233765632 1.6413181192897692 0 0 0
237 1 18.2206648147955 10.680647739979399 3.545180149882301 0 0 0
96 1 17.77256633041201 12.384443722857483 1.668312944356537 0 0 0
238 1 19.83878794451837 12.586144303221923 3.817378641921943 0 0 0
239 1 19.71884330479329 10.568201069344703 5.358621357550362 0 0 0
216 1 17.948829040719158 8.806709073623143 4.748340630132881 0 0 0
220 1 21.30891192376522 12.549291693140656 5.427802061609584 -1 0 0
196 1 21.385975927760047 8.552727099149877 4.9505295219495205 -1 0 0
99 1 1.7856261823883086 13.995220918740094 1.450242542314179 0 0 0
104 1 3.4207362778525323 15.823028058996165 1.1425236751861265 0 0 0
242 1 1.4937279734826523 15.860329578762805 2.952046315010287 0 0 0
245 1 3.496354479622009 14.090935116952028 3.2406670282789727 0 0 0
243 1 1.5446196846785392 14.351907817524237 5.1867485185074305 0 0 0
248 1 3.855909484804112 16.11394222407958 5.1100618026264755 0 0 0
241 1 -0.1269260113225826 14.264955996556358 3.3184851800630426 0 0 0
311 1 19.80338041703233 21.2592930701728 8.908123936078626 0 -1 0
103 1 5.301334221032569 14.066659191657402 1.4340988979239544 0 0 0
108 1 7.038896185431093 16.3902387563782 1.5665613085197465 0 0 0
246 1 5.118640920184687 16.05106702635473 2.9833289204792663 0 0 0
249 1 7.160868127253778 13.591095835284266 3.2349867136086226 0 0 0
247 1 5.243710918258927 14.147317502287008 5.033632251865345 0 0 0
252 1 7.069659896784135 15.934614700597066 4.922426731579907 0 0 0
498 1 16.12029556816062 8.824707296804318 10.477340174852973 0 0 0
107 1 8.690900651320797 14.483576000725941 1.6606236356456365 0 0 0
250 1 8.994671429557439 16.245000799015532 3.4794500388313243 0 0 0
112 1 10.8236259993145 16.16221962910696 1.3240576614724338 0 0 0
253 1 10.37982319389816 14.435668701052577 3.1379419901111043 0 0 0
111 1 12.488092771257147 14.204614674149935 1.751027080407109 0 0 0
251 1 9.046731963720768 14.292394521327441 5.339353378022497 0 0 0
254 1 12.553777836277956 16.073076069055073 3.3863211590972746 0 0 0
255 1 12.57956977073153 14.28065479537936 5.253146417051784 0 0 0
412 1 0.0032154093033155418 19.613522529524367 9.137523396789465 0 0 0
569 1 14.163055963380048 17.99911465698437 10.446529453076222 0 0 0
115 1 15.272499364366697 14.25565692346709 1.508729256708205 0 0 0
116 1 14.28692856105891 16.379039546999746 1.699149628865927 0 0 0
257 1 14.376276509117053 14.472163837069427 3.5942238766060908 0 0 0
258 1 16.146366892615205 16.19213484123144 3.7048428139929968 0 0 0
114 1 16.13297905799178 16.21611568889646 -0.08011674746138664 0 0 0
441 1 7.090580305474092 21.303475356102787 10.352699591051161 0 -1 0
100 1 21.386625845917703 16.07182688627206 1.737197349693321 -1 0 0
119 1 19.742773313104742 14.029267663599375 1.7322321400111407 0 0 0
120 1 17.800317291644756 16.078354668311057 1.602005132746468 0 0 0
261 1 17.714052498665072 14.276936062919976 3.384419321076986 0 0 0
262 1 19.520481494163146 15.93443147794336 3.320507284974779 0 0 0
57 1 6.934211430344493 6.649652733019084 0.17115771398221158 0 0 0
149 1 3.3451493487021975 -0.08904002147095516 3.5302543409959037 0 0 0
3 1 1.7739183356233408 0.06835925942909232 1.5872495294033149 0 0 0
123 1 1.3599981556462586 17.9131378357255 1.311357935479398 0 0 0
128 1 3.2309816767184536 19.68289109788318 1.5166239368245038 0 0 0
266 1 1.5084784243043294 19.728325008865813 3.3219950817492188 0 0 0
269 1 3.068843126515237 17.665028640259074 3.592607989025713 0 0 0
425 1 14.182835710566872 18.246504438494203 6.678807127790194 0 0 0
267 1 1.7071744364020776 18.253908634481597 5.5296570426872185 0 0 0
7 1 5.031643237957372 21.27366210189861 1.6287182050009255 0 -1 0
273 1 7.123452199997019 18.068900519803698 3.492892456764097 0 0 0
127 1 4.901108081718857 17.959858400015413 1.4107214340657337 0 0 0
132 1 6.866833680513352 19.5870024025623 1.5205299742551917 0 0 0
270 1 4.88077113448466 19.429336323983616 3.2474011532141676 0 0 0
276 1 7.030053276151065 19.568000019924273 5.403059643424775 0 0 0
274 1 9.019256084464503 19.964057639871996 3.411748358055722 0 0 0
272 1 3.630861246028946 19.771475984435604 5.085845116489857 0 0 0
271 1 5.275748596344211 17.78894076269461 5.048478165707699 0 0 0
11 1 8.747523174649684 -0.055878837902909595 1.487932135125286 0 0 0
478 1 19.633497362079307 5.37487174122075 10.39824654843705 0 0 0
275 1 9.010031745396228 18.08052436632859 4.970746695499979 0 0 0
131 1 8.876784165578224 18.060516087782872 1.3094513380339854 0 0 0
136 1 10.563592234513065 20.12135417871626 1.3929281951471437 0 0 0
277 1 10.543337590695222 17.803796853080982 3.4841780121702763 0 0 0
278 1 12.203223280304629 19.975938666130062 3.326971170030775 0 0 0
135 1 12.159121311672067 18.07852760822305 1.7979050657737843 0 0 0
305 1 14.275110976080885 -0.0290271400564881 7.007128561736114 0 0 0
284 1 14.017801382512967 19.843527793315538 5.3984037695264595 0 0 0
139 1 16.28650939272812 18.14903520943262 1.8203646015348265 0 0 0
140 1 14.426654135571415 19.62418518903519 1.681702487999993 0 0 0
281 1 14.131488186781485 17.832638506257396 3.328980616038319 0 0 0
282 1 16.151048902649098 19.71075104514114 3.46875282487365 0 0 0
163 1 16.215769986558005 21.457097716318405 5.002862844702933 0 -1 0
283 1 16.177800273447854 17.982256762913078 5.241147932584593 0 0 0
449 1 14.42068505958568 21.208973212175565 10.569503856470764 0 -1 0
501 1 17.98544910174771 7.078920249197016 10.48895945208604 0 0 0
268 1 21.404125931483982 19.73228106701127 5.341066368638877 -1 0 0
124 1 -0.04959956166379781 20.182339281107744 1.6253730648827143 0 0 0
265 1 -0.06266747738352207 18.178978798944865 3.513306861346644 0 0 0
145 1 -0.10797930449831386 0.019806637227175017 3.5090617653088043 0 0 0
143 1 19.781719873078405 18.134133107970378 2.1113003300060353 0 0 0
144 1 17.90166745825767 19.65120815619571 1.5630897881829082 0 0 0
285 1 18.047270575763473 17.856569189432165 3.495933312418269 0 0 0
286 1 20.00297935663402 20.033914647615962 3.4865767812478086 0 0 0
171 1 1.7443620173276035 3.19287319934292 5.22799700400284 0 0 0
290 1 1.6105470306321945 1.377208307893813 7.207926521812502 0 0 0
296 1 3.2478093513522786 1.8278592034351049 8.920779991417307 0 0 0
317 1 3.101371900202239 3.405681719336292 7.1808205588066025 0 0 0
315 1 1.5706744069386813 3.438306183546642 9.113150616379226 0 0 0
289 1 -0.057020513833350994 21.537176227972214 7.363767803166385 0 -1 0
313 1 -0.09945629235475367 2.9835072896324384 7.063567251972775 0 0 0
148 1 -0.2231758266154884 1.4159245907606268 5.245528487487639 0 0 0
293 1 3.455970963142 21.40728511632221 7.054127929787833 0 -1 0
294 1 5.126972892316199 1.155274581079213 6.9761008624378 0 0 0
300 1 6.742808788285074 1.1798463457297172 8.924213026402327 0 0 0
319 1 5.057017835463922 3.2917203420361294 8.575125630419302 0 0 0
321 1 6.706007487367794 2.956053410489436 7.142406857409514 0 0 0
159 1 12.406037134681291 -0.2669912369966804 5.221460282551398 0 0 0
155 1 8.52668338959287 21.51132231502697 5.1681526692925805 0 -1 0
183 1 12.165959206095296 3.6520399846513785 4.964462384909104 0 0 0
481 1 21.373534162375332 6.789099302016888 10.555001941872497 -1 0 0
179 1 8.65823888726513 3.082898572370935 5.530712814012559 0 0 0
160 1 10.440121561944911 1.7419255519912005 4.912665187552223 0 0 0
298 1 8.496917160593402 1.2720793758938818 7.128738342309069 0 0 0
323 1 8.494287430434468 3.017394119343552 8.71971104059988 0 0 0
304 1 10.442397967831857 1.6297825175776903 8.987915692867409 0 0 0
325 1 10.54392508204294 3.4916727175537305 7.1191550917109625 0 0 0
302 1 12.35752511908844 1.7132581676201684 6.860876478888688 0 0 0
327 1 12.332593377825328 3.5925546673003876 8.671805870601787 0 0 0
522 1 15.91173951688842 12.215440933210777 10.462509461960975 0 0 0
137 1 14.208810581042606 18.019760163601166 -0.028433985642918602 0 0 0
164 1 14.1841627445352 1.6384552915928292 5.21457155403867 0 0 0
306 1 16.027843802461035 1.59168471674497 6.964806372617034 0 0 0
308 1 14.07632910068176 1.7588595431746485 8.846938416880663 0 0 0
329 1 14.197541270361867 3.4196109481256647 6.701393940677032 0 0 0
331 1 15.891688233517723 3.4557034736012984 8.800722688416604 0 0 0
570 1 16.34429050393657 19.771349585991235 10.547061842924647 0 0 0
168 1 18.1718273671714 1.4904789133710319 5.340744325790291 0 0 0
191 1 19.827382634470116 3.724611633300695 5.311306766993815 0 0 0
292 1 -0.06194678493273875 1.6049997983340039 8.858979219844201 0 0 0
310 1 20.002518390283953 1.317416649924463 7.220403054360368 0 0 0
312 1 18.02235904188625 1.3109623388977747 8.746027048375364 0 0 0
333 1 18.14709930833137 3.1835456891555105 7.380056408072333 0 0 0
335 1 19.983869793337515 3.2287050017008228 8.859977987595103 0 0 0
314 1 1.856838984391822 5.3587384969144285 6.7265974852352555 0 0 0
339 1 1.7000561923058541 6.842093429080452 8.770363199826111 0 0 0
341 1 3.456095577197855 7.324054597543088 6.853324114939978 0 0 0
320 1 3.5769091491562555 5.216743299292909 9.076824065380599 0 0 0
316 1 -0.05044223388227223 5.263360653118579 8.861644993155823 0 0 0
337 1 21.41128744068881 6.75327841539351 6.8369445040325 -1 0 0
318 1 4.640377108506894 5.166259332895217 6.828361102949836 0 0 0
324 1 6.859109660576775 5.521194926844287 8.83915819896524 0 0 0
343 1 5.452369309216882 7.280656540233442 9.042337800892536 0 0 0
345 1 6.79145802720403 7.023456746010267 6.97006137860238 0 0 0
113 1 13.903598176077665 14.470419083158234 -0.23920857311273389 0 0 0
562 1 8.831281553285162 19.66537625996672 10.310043152303532 0 0 0
207 1 12.41593119583622 6.791135692602663 5.119332584050959 0 0 0
203 1 8.597899130124638 7.064467427130673 5.233102809008901 0 0 0
347 1 8.755223905282136 7.048460767146785 9.084602737363195 0 0 0
322 1 8.534189915650845 5.040923157834677 7.24918437756068 0 0 0
328 1 10.446547017876968 5.234174363104333 8.773775795699573 0 0 0
349 1 10.113269375970775 6.726413299406913 7.095174456251601 0 0 0
326 1 12.309654728638824 5.227016653157244 6.853721667470321 0 0 0
351 1 12.29564248699495 6.736807608421462 8.633185729108185 0 0 0
565 1 10.844972937056465 17.6867379749608 10.48275727742652 0 0 0
477 1 18.148593491752617 3.2280771021930525 10.3626189829483 0 0 0
188 1 14.281443202480679 5.1371073057205745 5.133434059128391 0 0 0
330 1 16.111872353382445 4.857110110796606 6.714812313187293 0 0 0
332 1 14.61731653738214 5.318700876462083 8.871408155761426 0 0 0
353 1 14.163569919639492 7.013594667675509 6.847877151421948 0 0 0
355 1 16.005804873613865 7.303116923670861 8.533014368379849 0 0 0
192 1 17.819956110903 5.315823149705205 5.147941727350182 0 0 0
215 1 19.534099955312346 6.915115897862445 4.778421963786217 0 0 0
172 1 0.1525171650430187 5.077794733967412 5.313347201752393 0 0 0
334 1 19.80884037105948 5.261856978602593 7.143587631184236 0 0 0
336 1 17.4900135310991 5.4093617453569465 8.477740032467453 0 0 0
357 1 17.760421680784034 7.163349864309727 6.643843285597231 0 0 0
359 1 19.55318875817505 7.158172178554823 8.669508601325838 0 0 0
307 1 16.167629064390727 -0.13519386759822433 8.813173977702673 0 0 0
344 1 3.1536587035230617 8.653782763835874 8.881754228026741 0 0 0
338 1 1.3220120452840478 8.719684977216936 7.131146665065595 0 0 0
363 1 1.5300469518804745 10.57676851939747 8.534920378404424 0 0 0
365 1 3.238288333353629 10.276616632608619 7.02904501406407 0 0 0
362 1 1.5313430293469836 12.341137562274326 7.0759441838751185 0 0 0
368 1 3.6141856583952676 12.552571240312488 8.876089475994489 0 0 0
228 1 7.487842462332116 12.305048326701076 4.9938243929638215 0 0 0
348 1 7.11117158986146 8.797821098982968 9.009344761847078 0 0 0
342 1 5.234202221007833 9.24991078376288 6.901380919920057 0 0 0
367 1 5.24747930892565 11.046590841660676 8.837532724689783 0 0 0
369 1 7.104772617358337 10.424415746223065 7.06299342864205 0 0 0
372 1 7.140316706230559 12.35284304594442 8.899297685592435 0 0 0
366 1 5.433352000302292 12.36542721426905 6.73140797603838 0 0 0
85 1 10.60772014200701 10.527044372957304 0.40281252588326233 0 0 0
41 1 14.375401558372836 3.087563327213018 -0.1935422900642815 0 0 0
232 1 10.800577917391244 12.729353887784647 5.324898687232143 0 0 0
231 1 12.127598488133517 10.54223923482992 5.016565037396839 0 0 0
550 1 19.684518345668216 15.865804706311476 10.49781292353525 0 0 0
346 1 8.686049520253654 8.646339525099167 7.326065750560803 0 0 0
352 1 10.348067473957617 8.832714859886947 8.74208658060785 0 0 0
370 1 8.599594161395721 12.339639536923137 7.128446342200177 0 0 0
371 1 8.72818943387958 10.629852053817899 8.950510623371073 0 0 0
350 1 12.25852518444842 8.265872187126826 6.834499445232982 0 0 0
373 1 10.634857092703946 10.57322724874763 7.014782673382896 0 0 0
375 1 12.153590883335516 10.548302115983642 8.915124957149688 0 0 0
376 1 10.614566156800333 12.304436591847988 8.815220716767238 0 0 0
374 1 12.471559397932785 12.59388851216211 7.131593979256739 0 0 0
428 1 14.17768962902969 19.85976779782364 8.745149205776316 0 0 0
427 1 16.129107288123034 17.906578292829565 8.632858036875565 0 0 0
235 1 16.37436631061868 10.933412281219285 5.204222097342873 0 0 0
378 1 16.103423896293357 11.990856754658603 7.003365130004167 0 0 0
356 1 13.860340835533668 8.684585091354107 8.66700148371684 0 0 0
354 1 16.04830879306486 8.963639608999033 6.725889291635416 0 0 0
377 1 13.834799746855383 10.423858006844725 6.981325332053459 0 0 0
379 1 15.784436097148191 10.266922503884748 8.600157211945486 0 0 0
380 1 14.12014352050486 12.310628442351378 8.949466594469035 0 0 0
426 1 16.038273376187643 19.81219466575763 7.043490624890841 0 0 0
295 1 4.996744686511666 21.43604004715441 9.016542638281278 0 -1 0
423 1 12.654858243310283 18.18942000574782 8.643509028648976 0 0 0
240 1 17.822493040348572 12.862215571480268 5.007877192888614 0 0 0
280 1 10.825557496008399 19.617794541381162 5.445096887698864 0 0 0
361 1 -0.2755670123661851 10.51226302749918 6.968448754851629 0 0 0
364 1 21.35009721742005 12.327018246421334 8.793076461691946 -1 0 0
340 1 21.406712315043524 8.501488376377376 8.62909953311791 -1 0 0
360 1 17.951802879761388 9.023920923910268 8.493149169005942 0 0 0
382 1 19.308206024522462 12.696046858331574 7.293474509022861 0 0 0
358 1 19.712074349511873 8.778705278112346 6.950251335300613 0 0 0
381 1 17.978756403854057 10.53754165992476 6.863160945842086 0 0 0
383 1 19.905029679342288 10.560501179198747 8.709458188157402 0 0 0
384 1 17.71921414982183 12.035494959815475 8.782288561457978 0 0 0
422 1 12.517858305400157 19.894688961667335 6.939817744130161 0 0 0
386 1 1.5363528072114656 16.125227944724628 7.141330991100757 0 0 0
387 1 1.7707597028704725 13.939470851626654 8.66758906491452 0 0 0
392 1 3.2763259016423345 15.826420814897968 9.090689412494072 0 0 0
389 1 3.3261427100014958 14.081739254150492 7.030265444009127 0 0 0
388 1 -0.18262414257093212 16.03514465681228 8.928047997998437 0 0 0
244 1 0.06918154399442034 16.343451040886624 5.08014575396019 0 0 0
385 1 0.15147286276029837 14.267699471029848 7.019135346397576 0 0 0
497 1 14.52176708914021 6.949582562205314 10.539435029346388 0 0 0
417 1 7.035499960927578 17.85853882974054 6.917520543679384 0 0 0
396 1 7.237156722242508 15.7773111659364 8.490039670054331 0 0 0
393 1 6.75683161431362 14.311750233150942 6.74410109297498 0 0 0
390 1 5.0965607051683035 15.86965959806205 7.103285214933349 0 0 0
391 1 5.496013921333483 14.300513558281148 9.07132781146177 0 0 0
279 1 12.349977601550954 18.062978721196338 4.868153211944663 0 0 0
256 1 10.78657226251731 16.13312701866939 5.019721686374792 0 0 0
421 1 10.92273531956797 18.014277463438066 7.14376517690852 0 0 0
399 1 12.339921673279372 14.138587920645298 8.742562635629797 0 0 0
398 1 12.497361675395796 15.788717275322664 7.2281814882702555 0 0 0
397 1 10.439378570946786 14.099241878581775 7.406307696841236 0 0 0
400 1 10.778009068213091 16.07882436361081 8.6650272354725 0 0 0
395 1 8.758092368506752 14.242009378896226 8.813451138642247 0 0 0
394 1 9.019938742022772 16.036167203476023 6.740787396933779 0 0 0
419 1 8.631769020285468 17.85465787621541 8.605477768628548 0 0 0
260 1 14.243109906068117 16.2227723724559 5.367174839503106 0 0 0
259 1 16.128349935250206 14.530196956226527 5.354242760070058 0 0 0
404 1 14.17262868921883 16.53264766991066 8.393298823878032 0 0 0
402 1 15.914148409346847 16.209474399748 6.946136570701446 0 0 0
401 1 14.50453360266933 13.887879237518971 6.718839302930848 0 0 0
403 1 16.07475237861765 14.313708899824842 8.72803177101868 0 0 0
303 1 12.479593866872165 -0.162705793367941 8.816155979905245 0 0 0
263 1 20.067206145770907 14.626027520708952 5.469470867519881 0 0 0
264 1 18.134306956841332 16.260202702598658 5.321412944853257 0 0 0
418 1 9.02252921315312 19.874721697208106 7.003217013834165 0 0 0
424 1 10.698700064351678 19.880332056077123 8.775716388576422 0 0 0
407 1 19.489319240072867 14.277827986360743 8.99028610595997 0 0 0
405 1 17.691438700902733 14.409751440123264 7.141048236081798 0 0 0
408 1 17.79629499148111 16.19582957135557 8.666901023592601 0 0 0
406 1 19.913476521956497 15.98792525076044 7.245531579362665 0 0 0
420 1 6.763611729323109 19.64274074283467 8.904055857098554 0 0 0
409 1 21.43353517815877 17.853789540596978 6.977232269091169 -1 0 0
147 1 1.6042807746504524 21.45175843993756 5.417993415323966 0 -1 0
291 1 1.89317595557911 -0.11902537352687026 9.268852986232835 0 0 0
410 1 1.6310591164342814 19.77367802087612 7.306920427371709 0 0 0
416 1 3.5303702347527 19.358122199702944 8.646894136301649 0 0 0
413 1 3.6274631534143005 17.596572754983182 7.024902543745241 0 0 0
411 1 1.9791754742583225 17.71222161738767 8.605614394433854 0 0 0
299 1 9.149634057700512 -0.1747287201966259 8.808747082663997 0 0 0
301 1 10.669737808707373 0.022026827367828683 6.9391917256845685 0 0 0
297 1 6.827188737769607 21.3599596249389 7.128416650966663 0 -1 0
414 1 5.322740974201344 19.945183860152923 7.025345088894046 0 0 0
415 1 5.4341553503777105 17.497995402518555 8.8219126045067 0 0 0
18 1 16.161624402271542 1.3458599984918849 -0.258297459769926 0 0 0
502 1 19.66901050868212 8.823886725855036 10.608650708561267 0 0 0
546 1 16.11530653784948 16.25969674071585 10.473233965355258 0 0 0
94 1 19.7689232202931 12.410279211948184 -0.2064490245969506 0 0 0
142 1 19.868004500642733 19.90159249612176 -0.2705707171720689 0 0 0
121 1 21.20543880066931 17.927113038977357 0.08392760782996839 -1 0 0
542 1 12.453359803080533 16.216707612302812 10.047264978416337 0 0 0
549 1 17.535694759128923 14.471988231050164 10.553342016540421 0 0 0
505 1 -0.2729400090024159 10.507821563547463 10.469038177929974 0 0 0
474 1 16.382334993625264 5.104790185404308 10.558755884521482 0 0 0
545 1 14.145526939339456 14.46946343081521 10.337022461222478 0 0 0
450 1 16.01993766328276 1.5522317162243184 10.51257989759239 0 0 0
118 1 19.62311303054672 16.064164363538755 0.1852696274098639 0 0 0
554 1 1.9086400743489054 19.520622658801706 10.408657299764682 0 0 0
525 1 17.8134893642789 10.462131454328503 10.464854652613935 0 0 0
109 1 10.684807391147498 14.279922416053841 0.24708209830267203 0 0 0
509 1 3.2646416931775772 10.697677343460334 10.602845712735535 0 0 0
469 1 10.65042256697435 3.8745732770986256 10.555641179419931 0 0 0
82 1 8.952883276850349 12.332201286291752 0.09495976225052338 0 0 0
454 1 19.846435965897523 1.197576218908257 10.394891103356363 0 0 0
465 1 6.945028497699759 3.3942866318967866 10.484313628814755 0 0 0
1 1 -0.2714183309127033 21.535946642646504 -0.2538827970766322 0 -1 0
17 1 14.219724918210837 21.470849005415282 -0.05841256842623285 0 -1 0
494 1 12.199519914405508 8.386636274989005 10.536129795873705 0 0 0
14 1 12.498832594858637 1.5142674503042381 -0.196514702040132 0 0 0
134 1 12.410665031236427 19.795661838789435 -0.02735748045339953 0 0 0
538 1 8.978351685239527 16.352672658805076 10.427641350813078 0 0 0
529 1 0.020431570541892874 14.045510205196004 10.54266818025452 0 0 0
558 1 5.0360983516828535 19.329624817894302 10.52172840486914 0 0 0
138 1 16.054954446164743 19.835816602106775 -0.238735967304887 0 0 0
530 1 1.4315347163343863 16.143489822956486 10.592175867502057 0 0 0
566 1 12.277182599567405 19.98446749736087 10.551181100311211 0 0 0
453 1 17.927093499500046 21.393668444617155 10.517407339424015 0 -1 0
22 1 19.79743063320777 1.4419664841636561 -0.13999415696299167 0 0 0
54 1 5.289245220469687 8.524822391376727 -0.27624801762692286 0 0 0
62 1 12.411989882900146 8.877325966444834 -0.23703928517153727 0 0 0
105 1 6.941380733920926 14.318937020485421 -0.23272844320941388 0 0 0
45 1 18.10972494796427 3.2390486528482194 -0.27851140712150624 0 0 0
26 1 1.2796820887515747 5.343673342836236 -0.21434743320765648 0 0 0
133 1 10.79794262424934 18.11380513559727 -0.18042945947350475 0 0 0
440 1 3.4212567983436815 1.755916647741047 12.87933386319647 0 0 0
459 1 1.7256064644721927 3.989271452794199 12.304355436123036 0 0 0
578 1 1.4058090722470342 1.6517765429554292 14.485036117318387 0 0 0
605 1 3.098028045822543 3.8874135271487855 14.48896047792129 0 0 0
584 1 3.2750188212499416 1.4801863898352312 15.840548041955529 0 0 0
436 1 21.480303423653304 1.583936900143921 12.750600369652084 -1 0 0