LAMMPS data file via write_data, version 29 Oct 2020, timestep = 300000

864 atoms
1 atom types

-0.06240529841062248 21.326405298410005 xlo xhi
-0.06240529841062248 21.326405298410005 ylo yhi
-0.06240529841062248 21.326405298410005 zlo zhi

Masses

1 58.933

Atoms # atomic

3 1 1.7119549083598904 21.305680813791728 1.8344902333553503 0 -1 0
4 1 21.224114274291647 1.7163351537715401 1.7064969667754848 -1 0 0
8 1 3.438332884991067 1.7672762968763618 1.7183996993318538 0 0 0
27 1 1.7922900029408984 3.516024984254676 1.7459112266552126 0 0 0
146 1 1.7089744465862662 1.7308602297375455 3.527676693420028 0 0 0
169 1 21.205184093091923 3.451659329155261 3.4637007033935796 -1 0 0
173 1 3.468783260036387 3.553854064395805 3.6332807318872353 0 0 0
147 1 1.7142569835649324 -0.035127295826520674 5.377614256625783 0 0 0
148 1 21.300463356897186 1.764455436189336 5.3112178041920375 -1 0 0
171 1 1.7103473084806204 3.5166737542727757 5.278674337694852 0 0 0
12 1 7.098670888624623 1.6220949051512907 1.7688990842981964 0 0 0
31 1 5.1048065254308135 3.396373564930858 1.6444491676644093 0 0 0
33 1 6.959555714633415 3.597852396067964 0.011392437107659567 0 0 0
150 1 5.168277902490973 1.7782155938319502 3.524393592414048 0 0 0
177 1 6.966431066285398 3.3792655488769667 3.3800985682393025 0 0 0
156 1 7.008435502260714 1.7365940528673418 5.38720290316198 0 0 0
175 1 5.296798700600302 3.5659407353558423 5.357574483869215 0 0 0
13 1 10.67978494936673 21.29528411045954 -0.040875601946292014 0 -1 0
574 1 19.632232922908443 19.64324651038654 10.510368548570883 0 0 0
15 1 12.446168656118283 -0.03467533919189697 1.6454382444264535 0 0 0
16 1 10.59054645428283 1.7830899239943676 1.6683513318024144 0 0 0
35 1 8.935555727042173 3.566030058975222 1.6940469750715428 0 0 0
39 1 12.425909921614373 3.4474744372941895 1.7671194212027344 0 0 0
154 1 8.885471084836418 1.7390821225815791 3.562559902428309 0 0 0
157 1 10.780239303616593 21.228294803126698 3.488626743936228 0 -1 0
158 1 12.33062256837092 1.8163520300231637 3.5837755775461084 0 0 0
181 1 10.649502185957337 3.523068214786719 3.6073271864645786 0 0 0
159 1 12.429508033572532 0.059116140563707245 5.346687934804486 0 0 0
160 1 10.695139608592603 1.6439082624907921 5.375021315654749 0 0 0
179 1 8.848782920254271 3.391215017085407 5.3094555049383665 0 0 0
19 1 15.815465685247872 -0.048599922892233915 1.7398238530227175 0 0 0
20 1 14.152553792998315 1.7814255924713167 1.7634451752473899 0 0 0
41 1 14.093596967709594 3.5396644709653056 -0.039842102715228395 0 0 0
43 1 16.00055686344919 3.383347441179228 1.6749436731686789 0 0 0
161 1 14.077088833774177 -0.01795531198809515 3.5350470150892805 0 0 0
162 1 16.02772175157034 1.8023357661346024 3.479642696584177 0 0 0
185 1 14.067474086132446 3.4941408581458178 3.5325678557697975 0 0 0
164 1 14.308822472571073 1.7072570967605682 5.223322813865238 0 0 0
409 1 -0.021599305032061977 17.76969478805988 7.078369391318772 0 0 0
412 1 -0.010537575455472847 19.536599016044725 8.832054859960728 0 0 0
22 1 19.50038164422086 1.729000109890228 0.0014235165538773603 0 0 0
24 1 17.795990108315586 1.7446203488121677 1.7235665069973474 0 0 0
429 1 17.797281866507753 17.67777923473472 6.903585666317314 0 0 0
47 1 19.507640917965993 3.473893026372561 1.6175190363416452 0 0 0
165 1 17.69316622732677 0.10128094532139695 3.5246474813853483 0 0 0
166 1 19.45146760249291 1.8528406650696265 3.6090443202547626 0 0 0
189 1 17.802448139166792 3.513929653529146 3.505016079072703 0 0 0
430 1 19.540879703263627 19.59906750213019 7.141519325567518 0 0 0
32 1 3.5770328626999794 5.243408702697782 1.6573955295337226 0 0 0
51 1 1.7178282143355734 7.055233655001572 1.6751021211060066 0 0 0
170 1 1.6395162505108536 5.345407219458195 3.4544976591621976 0 0 0
193 1 21.32087951654066 7.189934238999938 3.4858763349536352 -1 0 0
197 1 3.509816194760244 7.039988200910384 3.45956811108054 0 0 0
176 1 3.542599589676216 5.341611070915145 5.344859686139166 0 0 0
431 1 19.510150669231884 17.681197063441573 8.840318479332335 0 0 0
36 1 6.904646921535058 5.3419156566468615 1.6962795504497163 0 0 0
55 1 5.2025659975968574 7.147240650253172 1.6772141850293618 0 0 0
57 1 7.106833400645505 7.05636912480407 -0.03940725550121234 0 0 0
174 1 5.336462859685158 5.267981793823181 3.5656754861956266 0 0 0
201 1 7.056618166770035 7.028300332979203 3.514723489555334 0 0 0
180 1 7.047936490797235 5.302782957319312 5.347743311589322 0 0 0
34 1 8.85737818904561 5.33528285863877 0.025333491282327356 0 0 0
432 1 17.825234299753035 19.554947510939463 8.879660050722672 0 0 0
40 1 10.707561725535118 5.28202102160086 1.7266778123914788 0 0 0
59 1 8.79380630633792 6.993418776414797 1.720644089552168 0 0 0
61 1 10.59142969249732 7.105981710966889 0.00144218517362453 0 0 0
63 1 12.478457977336747 7.092229153949358 1.6730742550332542 0 0 0
178 1 8.768627275640375 5.22983479068012 3.5255260441313423 0 0 0
182 1 12.353422002055204 5.173388202790161 3.631867792346831 0 0 0
205 1 10.686686720265312 7.135899726288054 3.4958030092925916 0 0 0
184 1 10.548734972115637 5.292332349250049 5.3795869375464465 0 0 0
203 1 8.869767124545822 7.0447761544308305 5.296516018821861 0 0 0
207 1 12.457143453946545 7.143895498942166 5.354397813041735 0 0 0
42 1 16.03624398297592 5.206885129737978 -0.0012017177702040166 0 0 0
44 1 14.212082682463853 5.217229922037578 1.8065691557128278 0 0 0
425 1 14.247234304646183 17.753829037097475 7.064896794301606 0 0 0
67 1 16.020100496130894 7.0355385015415415 1.745024527008027 0 0 0
186 1 16.037351444247 5.214623932212814 3.500820572832265 0 0 0
209 1 14.212378134703423 7.037447149595407 3.518865213105011 0 0 0
211 1 15.942108288114442 7.05587516318795 5.219391406980896 0 0 0
28 1 -0.049073469200983766 5.176540041060365 1.7047247138448112 0 0 0
426 1 16.01960059736748 19.63341702463515 7.023332769274752 0 0 0
46 1 19.480087000648965 5.215532455000073 -0.04058895349600078 0 0 0
48 1 17.789819693507084 5.231996145933885 1.7188399380212158 0 0 0
69 1 17.725725920494924 7.125627530092798 0.020760718650958743 0 0 0
71 1 19.580564478678944 7.06085144430248 1.6928551707653272 0 0 0
190 1 19.529808536477553 5.236349884090207 3.442180448912545 0 0 0
213 1 17.815296098048876 7.01329118797254 3.520835898466093 0 0 0
215 1 19.541938856073386 7.032324398986804 5.257435746021944 0 0 0
427 1 16.095262300139183 17.809990480463576 8.78963972680293 0 0 0
56 1 3.5789888633144424 8.92393317456561 1.723030677905507 0 0 0
75 1 1.652908119756899 10.62314011960399 1.6734317838318253 0 0 0
428 1 14.246150850384458 19.574628706113273 8.824119074648493 0 0 0
80 1 3.5548121896362948 12.293337088360511 1.5567785629636361 0 0 0
194 1 1.7312441714026134 8.864909065979134 3.4368960809994005 0 0 0
218 1 1.6926122727883623 12.346759620646276 3.2804752977105185 0 0 0
221 1 3.560208491170532 10.593160045842694 3.4453615690509776 0 0 0
224 1 3.3999288934087057 12.30939374829373 5.242009677957446 0 0 0
60 1 7.169956297782179 8.867435927137043 1.7323900562360899 0 0 0
566 1 12.511583823275638 19.59586822538096 10.608511218230463 0 0 0
79 1 5.366606598593467 10.680799304208987 1.766656229384799 0 0 0
84 1 7.225689556115207 12.403043882656892 1.9003524114612411 0 0 0
198 1 5.349525869024934 8.81560376792525 3.5211780868233302 0 0 0
222 1 5.187460432387811 12.47295700211257 3.476963823020249 0 0 0
225 1 7.20411278970404 10.55515767291269 3.5178832630696375 0 0 0
223 1 5.317740606088387 10.657625913072701 5.1255052279250215 0 0 0
64 1 10.661722474156067 8.842805798956539 1.7666151560230197 0 0 0
83 1 8.917093269753071 10.735798075744734 1.8498437188423558 0 0 0
87 1 12.313022312774683 10.623848723686457 1.758866099466356 0 0 0
88 1 10.667106313326522 12.584797089353684 1.678954980867488 0 0 0
202 1 8.902869983491403 8.83768813218429 3.523530373849889 0 0 0
206 1 12.56354449214166 8.862705574373141 3.534864762065154 0 0 0
226 1 9.010461504479752 12.348497170898266 3.4483601850343084 0 0 0
229 1 10.673527443524556 10.620329601357689 3.597141976592713 0 0 0
230 1 12.240954529286983 12.442704036611884 3.560037486540019 0 0 0
208 1 10.715473472040758 8.774297451390824 5.267844007617159 0 0 0
227 1 8.865117783671318 10.59545532994844 5.289708369814254 0 0 0
231 1 12.459336537243944 10.762764874623535 5.350569875337815 0 0 0
232 1 10.5968223343424 12.409615020424065 5.333426733977752 0 0 0
66 1 16.00529261856377 8.877211772439031 0.05258224346475926 0 0 0
68 1 14.219356559835534 8.875496167978286 1.714885149507406 0 0 0
89 1 14.099921179538153 10.685886297864194 0.010972129443945974 0 0 0
301 1 10.71969419213444 21.22954130725364 7.097206410526324 0 -1 0
91 1 15.947892621774605 10.723496549852314 1.7645816583773632 0 0 0
92 1 14.132654437763062 12.457986713545704 1.729681104883304 0 0 0
210 1 15.843388803922748 8.898309086976838 3.530048072234545 0 0 0
233 1 14.156562418733039 10.752448364999053 3.506818451169558 0 0 0
234 1 15.955744888301785 12.421321480955708 3.49721489981716 0 0 0
212 1 14.10319797594346 9.00399498866747 5.330794774203975 0 0 0
236 1 14.17548870521128 12.446641306645171 5.453465615944324 0 0 0
52 1 0.014996182273215197 8.749917998319484 1.6518244598054326 0 0 0
275 1 8.92463736783953 17.700328021602616 5.2247606177129216 0 0 0
76 1 21.306980535901104 12.43567260588594 1.6867678730528 -1 0 0
217 1 -0.04932666543979991 10.629769776429445 3.422829125806927 0 0 0
280 1 10.699923104762435 19.569495750466437 5.303904040774988 0 0 0
72 1 17.725761079561813 8.884383497299021 1.7882479368016124 0 0 0
93 1 17.761429085630425 10.712476661911069 -0.05219130769242746 0 0 0
418 1 8.896932590711096 19.556099410883633 6.944630720739819 0 0 0
95 1 19.607288893428354 10.524837152395476 1.5966585636243416 0 0 0
96 1 17.79505247599014 12.345524564658847 1.765871977835133 0 0 0
214 1 19.506642832246023 8.877590095516073 3.340639275296145 0 0 0
237 1 17.86949380712378 10.602087696096703 3.455096513435214 0 0 0
238 1 19.637890686111653 12.374970450903795 3.5091961350590823 0 0 0
220 1 0.007689812091797421 12.311632593874434 5.349878118426563 0 0 0
216 1 17.82296381716 8.779230689431127 5.16324574172129 0 0 0
99 1 1.7574419270483204 14.063796413084214 1.6290446434666215 0 0 0
100 1 21.297166095021527 15.93177382036122 1.711892906513519 -1 0 0
419 1 8.924258438996931 17.69446293038441 8.72421330227884 0 0 0
104 1 3.493925377895153 15.950971069167851 1.6621879656329563 0 0 0
242 1 1.7152982645545283 15.914520630193605 3.358810926572155 0 0 0
245 1 3.437863446164609 14.108181406779407 3.5692001457355036 0 0 0
421 1 10.71578946677255 17.801580723741033 7.024602201429616 0 0 0
103 1 5.221388345153146 14.06381182456527 1.6385622037285361 0 0 0
108 1 6.927988042204344 16.020277130964793 1.8002387097667496 0 0 0
246 1 5.203284836423287 15.891441493135071 3.513796862783551 0 0 0
249 1 7.097563438013325 14.277172914468952 3.4896046751903476 0 0 0
247 1 5.322824438549443 14.235878257399584 5.199046313840941 0 0 0
107 1 8.945042024276827 14.086372541501927 1.6624248500736352 0 0 0
422 1 12.569126784823759 19.515061349473868 6.970403260442514 0 0 0
110 1 12.336639597811372 16.00716908906781 -0.0568137424138271 0 0 0
111 1 12.53920208542297 14.261516107471346 1.6877946507610924 0 0 0
112 1 10.520320368219963 15.93044053229048 1.8462776687116373 0 0 0
250 1 8.824526707420413 16.080928396797134 3.4795063350165334 0 0 0
253 1 10.6395236320392 14.229045193478237 3.5956340123620327 0 0 0
254 1 12.40461693091861 15.930122926202218 3.4424792316789468 0 0 0
256 1 10.74452492297894 15.95686904842165 5.251902450389628 0 0 0
423 1 12.633242259708235 17.806703010854648 8.944411177023026 0 0 0
114 1 16.06147514993623 15.963214867899326 0.04888830641195803 0 0 0
115 1 15.975645986865336 14.12176346968794 1.683316152506545 0 0 0
116 1 14.231852662727158 15.999316011190958 1.834784634745527 0 0 0
257 1 14.287136259371207 14.1947876096884 3.5425497567626856 0 0 0
258 1 16.177053649503428 15.948478155444276 3.5002327944222653 0 0 0
260 1 14.289873242651552 15.94709453333295 5.281803404540686 0 0 0
241 1 -0.0014224627235037701 14.0186369841988 3.4239097051351166 0 0 0
424 1 10.68824252974031 19.531156747853444 8.882718453605316 0 0 0
119 1 19.599383400629975 14.238817455615802 1.6237173428188254 0 0 0
120 1 17.857775827522524 16.023707659015535 1.6575560463250696 0 0 0
261 1 17.775151035372915 14.150250905352253 3.3422575685333857 0 0 0
262 1 19.54459280579283 15.897733756785852 3.418699468264846 0 0 0
264 1 17.859739125304834 15.940716278592218 5.213859918005651 0 0 0
145 1 21.315512963660186 0.010590651419263963 3.5267563270243345 -1 0 0
149 1 3.3718389390023336 -0.05700637831090205 3.567562947925915 0 0 0
123 1 1.6406123633367746 17.76127916747886 1.62929639980351 0 0 0
124 1 21.259145661285807 19.56176782294075 1.7549046142524858 -1 0 0
128 1 3.4202687353797647 19.563951228959866 1.6802797637115408 0 0 0
265 1 0.04155809302084919 17.70895494953568 3.4261442914159552 0 0 0
266 1 1.5508804138439822 19.603501834610363 3.5491995481243577 0 0 0
269 1 3.476937090197883 17.817558438556368 3.4712907769900316 0 0 0
268 1 21.26216267747235 19.57877202681243 5.37807014460233 -1 0 0
7 1 5.130519862882256 21.296114538703485 1.8271340839090657 0 -1 0
153 1 6.9363610567817275 0.08522495964213306 3.399087336141726 0 0 0
126 1 5.336951139012837 19.490536850194758 -0.016643478255850767 0 0 0
127 1 5.191424498808636 17.820406879993513 1.6977632224615269 0 0 0
132 1 6.982108345598635 19.52410996569109 1.7378627177614385 0 0 0
270 1 5.215081618469107 19.509557572181926 3.6362753863686894 0 0 0
273 1 6.938549932292191 17.736524379862075 3.4651390623029212 0 0 0
151 1 5.168153250587821 21.275530968441558 5.239745670133805 0 -1 0
11 1 8.899849642247997 -0.039596235213245734 1.8703558683388664 0 0 0
279 1 12.493556338673333 17.692539911515112 5.217577435084807 0 0 0
131 1 8.65906194123241 17.8356505321467 1.8768592904706909 0 0 0
441 1 7.063319930056154 21.256762258105233 10.557594844230342 0 -1 0
135 1 12.539259828585823 17.65759163293872 1.7882070465291922 0 0 0
136 1 10.68582559940739 19.455780823694795 1.7027949153536197 0 0 0
274 1 8.850995117404267 19.585935206411527 3.661295956203984 0 0 0
277 1 10.667779184372108 17.71856776610943 3.5037698036471387 0 0 0
278 1 12.447858166530233 19.5067629918941 3.396196144502454 0 0 0
155 1 8.867718715173337 21.23659725448683 5.286736217502271 0 -1 0
284 1 14.214637483619759 19.61575405305514 5.194087168990933 0 0 0
283 1 16.045382303119915 17.88710010158467 5.2431375458964204 0 0 0
295 1 5.28659347029754 21.303237441239702 8.808774209951665 0 -1 0
271 1 5.149345602324677 17.7119065622105 5.288634609283038 0 0 0
139 1 16.027114939998256 17.710896056507266 1.721795651610049 0 0 0
140 1 14.234942625302903 19.62996983663613 1.6463499704405251 0 0 0
281 1 14.373843314413694 17.803301355399725 3.511717300629316 0 0 0
282 1 16.02185954965975 19.56603613829762 3.498568964580144 0 0 0
163 1 16.060789573152547 -0.025621438705705657 5.197925521796123 0 0 0
288 1 17.88605232667384 19.584985060405124 5.349889078084367 0 0 0
287 1 19.656390711550102 17.707888885959 5.227607483843386 0 0 0
23 1 19.418800711484693 0.0013947353987546762 1.7565716173579558 0 0 0
141 1 17.76510205597075 17.84327175911087 -0.059215414022991034 0 0 0
276 1 7.050621519664023 19.554608631503193 5.3093800883662094 0 0 0
143 1 19.427697768939545 17.814199309274386 1.7103573172831088 0 0 0
144 1 17.71228086662623 19.66406491135364 1.802508977765732 0 0 0
285 1 17.854399026929237 17.814404486130798 3.4668749616263814 0 0 0
286 1 19.533644410849085 19.562799351361967 3.521538105718958 0 0 0
152 1 3.430270009011656 1.7980168036187465 5.303311243282231 0 0 0
289 1 21.197868560868788 0.0002320625702538076 7.181982088690821 -1 0 0
290 1 1.6858500455172667 1.8170601891204512 7.032160181709117 0 0 0
291 1 1.7530580985800344 -0.0263296483175045 8.837154428830484 0 0 0
296 1 3.5009336636395223 1.7747656610196496 8.92587023036455 0 0 0
313 1 21.24505748425038 3.433673372228728 7.1016581472435085 -1 0 0
315 1 1.660493777777498 3.466378991244827 8.834216346102528 0 0 0
317 1 3.390308008169111 3.5691403772227903 7.204782238931074 0 0 0
414 1 5.229890297564306 19.503910150045364 7.0392947505424734 0 0 0
294 1 5.270681526907331 1.7156255086736667 7.07477893242306 0 0 0
297 1 7.098152037431082 21.313738229859627 7.048540530265206 0 -1 0
300 1 6.97364546717878 1.6930597572191965 8.852433983804563 0 0 0
319 1 5.342516009297493 3.501785782595094 8.969840814491889 0 0 0
321 1 7.0838980873818835 3.593712086088571 7.080221543998753 0 0 0
438 1 5.322708667206511 1.6976084148702504 10.596429370760433 0 0 0
415 1 5.32242195900906 17.76450489436587 8.859880535508017 0 0 0
183 1 12.439133135485836 3.4902452049348103 5.397428448704471 0 0 0
298 1 8.78512151070479 1.6478483964292885 7.010219033975424 0 0 0
299 1 8.852017022326526 21.266546602488468 8.846406667700919 0 -1 0
302 1 12.45298174970024 1.7028666114464723 7.0497310282600605 0 0 0
303 1 12.42631533283423 21.201864366138736 8.815185257287586 0 -1 0
304 1 10.733332772016206 1.6465648126485088 8.82372580502741 0 0 0
323 1 8.82140258166929 3.4815322457638 8.89369797086209 0 0 0
325 1 10.605496843697793 3.456287382242936 7.107497680996501 0 0 0
327 1 12.414878966381114 3.5663209890489505 8.849520277568427 0 0 0
417 1 7.0570934906544585 17.80754950600972 7.003468838574514 0 0 0
187 1 15.942423462958855 3.5232959682752716 5.303322803995518 0 0 0
305 1 14.199382899792445 0.02519424058711031 6.95095439565559 0 0 0
306 1 15.85558318785335 1.7348532526716127 7.114565427304823 0 0 0
307 1 15.967956300521061 -0.04471549826290324 8.967463859140857 0 0 0
308 1 14.158974336731598 1.7663583663646396 8.841588561268368 0 0 0
329 1 14.19605990918034 3.5404261156625196 7.057716378117365 0 0 0
331 1 15.93749578509536 3.493547179923795 8.979038761263684 0 0 0
420 1 7.0755251298704716 19.48903816298244 8.758108766776989 0 0 0
450 1 15.983283857236382 1.7217556148008255 10.562780590931437 0 0 0
473 1 14.11945006669315 3.453564282353063 10.563802943437715 0 0 0
292 1 0.04282009349675775 1.6679954180879315 8.89246505848713 0 0 0
167 1 19.462407803909443 0.07204774670961009 5.350653737801317 0 0 0
168 1 17.663174150374253 1.895699237214772 5.304052190544652 0 0 0
191 1 19.547466899604785 3.5960834760091203 5.365799051708182 0 0 0
309 1 17.7904216443753 -0.038430790389956886 7.069832037143412 0 0 0
310 1 19.45130868757473 1.8872588449789813 7.050823411390139 0 0 0
311 1 19.46323683569826 0.08016739367121736 8.943003090205039 0 0 0
312 1 17.74521653465098 1.7431520442483217 8.90823824080908 0 0 0
333 1 17.72223736771506 3.690656988689 7.157892332500634 0 0 0
335 1 19.510370522675466 3.4922788960134916 8.87866916160033 0 0 0
433 1 0.056321913569078674 -0.05780288349605588 10.564484783930123 0 0 0
195 1 1.7797726940246577 7.0275320835023365 5.193839604722619 0 0 0
314 1 1.618923464406977 5.358216672620171 7.086970285651294 0 0 0
316 1 21.280435630503227 5.213038456796818 8.918192301412384 -1 0 0
320 1 3.4760472741952477 5.2250475293033425 8.894081070487125 0 0 0
337 1 21.304114067751424 7.003176603870427 7.081807330632334 -1 0 0
339 1 1.7844199861592065 6.991862453568662 8.84074580848928 0 0 0
341 1 3.4981473846986644 6.904852867248334 7.089998199382484 0 0 0
485 1 3.5821076394969533 7.083783685691437 10.61577357491386 0 0 0
199 1 5.239569643440449 7.0083930717065765 5.326902327098895 0 0 0
318 1 5.2572633215877485 5.221969209385678 7.178661953924141 0 0 0
324 1 7.04881849183087 5.434627428162038 8.98843371329157 0 0 0
343 1 5.32055617917399 7.0939881668631255 8.985475875788334 0 0 0
345 1 7.105867294655751 6.937605871999114 7.077380369435379 0 0 0
322 1 8.920866040236618 5.28989254291342 7.111613548009366 0 0 0
326 1 12.355524845144608 5.282803075364305 7.086263550543089 0 0 0
328 1 10.564195585286072 5.125882756761829 8.963952140539043 0 0 0
347 1 8.897790020492053 7.0443324774513965 8.897654525301732 0 0 0
349 1 10.688372568736055 6.98163146418958 7.227098569611787 0 0 0
351 1 12.480974601070448 7.020316779452194 8.80497267380455 0 0 0
188 1 14.2113836437565 5.321526242306731 5.404300887113125 0 0 0
330 1 16.052375163985552 5.341364864094798 7.123762936515296 0 0 0
332 1 14.221944039198473 5.26123741385002 8.812883809361328 0 0 0
353 1 14.314490930846468 7.2320611975837865 7.149476625712188 0 0 0
355 1 15.952137534867651 7.119240103846064 8.799521302674133 0 0 0
474 1 15.942648988676188 5.361777024288763 10.555258433019697 0 0 0
172 1 21.30663735289069 5.2844210302031485 5.228723653526043 -1 0 0
192 1 17.719128665789064 5.211892328879969 5.3019000389408 0 0 0
334 1 19.420337752211317 5.283889945537704 7.14871885600474 0 0 0
336 1 17.725023924595646 5.341025308896182 8.915731480797048 0 0 0
357 1 17.791384609797767 7.119514637688636 7.139189294319635 0 0 0
359 1 19.552420257691672 7.18087992954429 8.809828312840876 0 0 0
557 1 3.4377193188008373 17.896199126981493 10.629043547790268 0 0 0
196 1 -0.03850874526027162 8.851002638548906 5.197614913037284 0 0 0
200 1 3.520782756009599 8.736525975185556 5.275890932060725 0 0 0
219 1 1.7382112791594846 10.501100497500925 5.183689289955072 0 0 0
338 1 1.7574250019593496 8.84276102786752 7.072873917349747 0 0 0
344 1 3.588991402910149 8.789359091563824 8.818586140997812 0 0 0
361 1 0.06102884964736377 10.529633054217173 6.997942937909067 0 0 0
362 1 1.7657537704709076 12.327499322249151 7.058872967568871 0 0 0
363 1 1.835281825431952 10.609095673837402 8.82160032949259 0 0 0
365 1 3.5590722188661807 10.613586233353956 7.096513544979315 0 0 0
368 1 3.533835870062528 12.476697711974271 8.877667804069057 0 0 0
554 1 1.7994917220132323 19.671043901236892 10.458855274566151 0 0 0
204 1 7.1782257601605055 8.853069566491085 5.311620331939947 0 0 0
228 1 7.110062244016991 12.451608190394362 5.088423824336864 0 0 0
342 1 5.351005719478459 8.786573246478628 7.029261049864392 0 0 0
348 1 7.106117559844468 8.860446188344623 8.786612947925805 0 0 0
366 1 5.33325593873807 12.479868383536104 6.9930625404770375 0 0 0
367 1 5.364490685471814 10.673593150209916 8.762651247968751 0 0 0
369 1 7.052510498815224 10.649235761763213 6.964084033286372 0 0 0
372 1 7.07603898638188 12.605004014172549 8.754759140341092 0 0 0
411 1 1.817990651060056 17.721206852800016 8.907319279454063 0 0 0
510 1 5.313126654280069 12.368560383711449 10.59309352469419 0 0 0
513 1 7.120341992308214 10.6545090251361 10.556482902846396 0 0 0
346 1 8.880955416534144 8.848241213494317 7.092962940654536 0 0 0
350 1 12.43580911375333 8.88371588376962 7.144352429951806 0 0 0
352 1 10.606885499293437 8.921353679432762 8.94636538982252 0 0 0
370 1 8.704715697895166 12.402092928227335 7.100948250254332 0 0 0
371 1 8.916597387821882 10.6649434643593 8.829326375084927 0 0 0
373 1 10.613243477130283 10.554862866269993 7.038526818659815 0 0 0
374 1 12.428091251539076 12.455451285865767 7.188391083014457 0 0 0
375 1 12.472630386687245 10.705283550881624 8.753748344406471 0 0 0
376 1 10.708771519040598 12.404411192013997 8.794263888749217 0 0 0
514 1 8.94356471057917 12.546600805361932 10.624950900875291 0 0 0
518 1 12.436315225421431 12.356320596289326 10.574243348454885 0 0 0
235 1 16.01516614499041 10.659731066729789 5.3065720079897325 0 0 0
354 1 16.118394000753796 8.918351231558711 7.025818346655187 0 0 0
356 1 14.193019958504083 8.84165213169545 8.895833242020615 0 0 0
377 1 14.331734544159454 10.66489304397122 7.053737157436185 0 0 0
378 1 16.075396154062794 12.505948819826518 7.01088722869327 0 0 0
379 1 15.919954147557526 10.692612536255618 8.83852980904846 0 0 0
380 1 14.285331225166738 12.460946735950643 8.769572520770563 0 0 0
410 1 1.7390783936269425 19.498231949463765 7.154944194958277 0 0 0
340 1 0.16229143867884943 8.787241003814483 8.849928720959959 0 0 0
364 1 0.022550647345433106 12.327126195396984 8.919024624611852 0 0 0
239 1 19.686488009336813 10.560869335617939 5.284098738363333 0 0 0
240 1 17.84319182738649 12.324147276500943 5.276849292609951 0 0 0
358 1 19.66527049638676 8.89375332836818 7.123412296994465 0 0 0
360 1 17.728662520754618 8.951292101679773 8.908645853449935 0 0 0
381 1 17.794329138513895 10.648308574828159 7.041334510862734 0 0 0
382 1 19.55776975275208 12.344890737491722 7.0886696359538615 0 0 0
383 1 19.69609600741137 10.539832196295338 8.816142163986559 0 0 0
384 1 17.674116963007798 12.414901054660739 8.913953566612799 0 0 0
243 1 1.672479124034473 14.265569541802936 5.275038284999347 0 0 0
248 1 3.4681065917480414 15.939547527486654 5.218904584659906 0 0 0
386 1 1.8509594077517144 15.898518683970716 7.174693906021343 0 0 0
387 1 1.7523685874059185 14.111706547198024 8.86908504848252 0 0 0
388 1 -0.04862145128291478 15.960905024347246 8.862250231753428 0 0 0
389 1 3.475799553492994 14.182313798548648 7.029132525866735 0 0 0
392 1 3.6230129491361267 15.956903545068604 9.010684766341964 0 0 0
272 1 3.3522246398009092 19.419543116424542 5.2539342295894915 0 0 0
252 1 7.147966400857365 16.061157121772744 5.240628778448346 0 0 0
390 1 5.295550233794632 15.94682106738148 7.047535981104864 0 0 0
391 1 5.290245453653397 14.210329332665639 8.816824935344762 0 0 0
393 1 7.03295955510439 14.263895357107248 7.063056844462186 0 0 0
396 1 6.959349386521078 15.957092454731582 8.906619508988348 0 0 0
267 1 1.732750751455204 17.701149331074014 5.325220268598872 0 0 0
537 1 7.0089836853765375 14.230710581213705 10.603574818431126 0 0 0
251 1 8.828288603759841 14.143366657141998 5.3212377853777655 0 0 0
255 1 12.489712306973816 14.159788104861127 5.349217962866417 0 0 0
394 1 8.782889420076778 16.023102295837006 7.053348747660076 0 0 0
395 1 8.902189019721426 14.279280879456968 8.783323732851738 0 0 0
397 1 10.568864177986997 14.187311882612939 6.983560909808186 0 0 0
398 1 12.504503642878703 16.01361486325041 7.08197372149165 0 0 0
399 1 12.495449040229209 14.27182330450763 8.812749932643607 0 0 0
400 1 10.76441177604625 16.125703063081133 8.872474350150759 0 0 0
293 1 3.4473402958505517 0.0009183697542525238 7.047046436428534 0 0 0
259 1 15.974126308943342 14.236376531121678 5.261721081737754 0 0 0
401 1 14.230401427807957 14.324738497835998 7.103798786751381 0 0 0
402 1 16.02049013500679 15.998614857432733 7.07725488173262 0 0 0
403 1 15.967540917314194 14.433250923750762 9.013827376190523 0 0 0
404 1 14.239570586552217 16.07560929102152 8.871154387404536 0 0 0
413 1 3.4361096137386107 17.74392472857862 7.032614813673563 0 0 0
244 1 21.32234387526544 15.899021274329726 5.224152898962299 -1 0 0
385 1 21.303886931361767 14.065991741889693 7.143704887601756 -1 0 0
263 1 19.586459764838352 14.154158854863887 5.4046772133841205 0 0 0
405 1 17.808816767387952 14.245826980919972 7.132384821571064 0 0 0
406 1 19.631614358090687 15.98950473043372 7.1172330054268125 0 0 0
407 1 19.544787714320726 14.140739214094173 8.9789123752151 0 0 0
408 1 17.715128044795073 16.022633387916024 8.849858485262995 0 0 0
416 1 3.479912728224033 19.50156742879752 8.784625724922714 0 0 0
442 1 8.896816188133272 1.5883672569050324 10.573816836574476 0 0 0
477 1 17.71905234946584 3.5927295848943945 10.597316304108574 0 0 0
466 1 8.922439481731704 5.215870725343598 10.62401649050353 0 0 0
470 1 12.291643744182213 5.213904060057296 10.52478733018554 0 0 0
497 1 14.193446938863792 7.042644334450076 10.581856177120072 0 0 0
481 1 0.12119613941970186 7.075228504759524 10.559809801202933 0 0 0
505 1 21.299039413825145 10.511151082318346 10.5553245677094 -1 0 0
509 1 3.5700607840615435 10.599706340544758 10.536827866438497 0 0 0
502 1 19.540424644344263 8.813388485691041 10.568325331464054 0 0 0
526 1 19.55296052230063 12.39521743083133 10.550888854461101 0 0 0
538 1 8.961294488525036 15.91077211969284 10.54437320123648 0 0 0
541 1 10.76606567431009 14.17850844235809 10.565849213791108 0 0 0
562 1 8.834471103994847 19.629081923301804 10.578616225505728 0 0 0
133 1 10.531720773639217 17.65220575363636 -0.01660227009609372 0 0 0
130 1 8.894416218053982 19.503260497001293 0.01060998610395103 0 0 0
1 1 21.25580143411223 -0.05314648435989303 0.0102810836681968 -1 0 0
2 1 1.643618446070059 1.658446403169615 0.019689235847934583 0 0 0
6 1 5.328385281358881 1.5996872304711196 0.032197617133711276 0 0 0
10 1 8.869927112604252 1.6850097130499386 0.009739470564859687 0 0 0
81 1 7.117233029624341 10.647644240704274 0.01780267545317571 0 0 0
58 1 8.94970713093704 8.824806613539334 -0.05140310824162242 0 0 0
62 1 12.310962474288022 8.896410797097703 -0.004402541406719251 0 0 0
105 1 7.089558116547511 14.136081915049981 -0.001477517429684383 0 0 0
106 1 8.75587385477555 15.942244160918625 -0.013703409200616079 0 0 0
121 1 21.266247730908187 17.774213945568064 -0.025020942105413724 -1 0 0
122 1 1.6502568299486176 19.664693256744506 0.052477362205650024 0 0 0
435 1 1.7603034006087652 -0.04137277232393648 12.479842084017116 0 0 0
436 1 0.0156886910694089 1.6167901505487599 12.432368379324219 0 0 0
440 1 3.5428581035995492 1.6930685754315444 12.490390293460816 0 0 0
457 1 21.188720176769095 3.432280561020009 10.756426378924617 -1 0 0
459 1 1.6783818633849987 3.4907734967828388 12.360484412761116 0 0 0
461 1 3.3566729375613065 3.468222391287908 10.646320007379273 0 0 0
577 1 0.05322079807773042 -0.005507213826489395 14.218819945905398 0 0 0
578 1 1.7038443494783913 1.8063477264551566 14.154550711332467 0 0 0
601 1 21.306850073289056 3.553755865895118 14.12552798907032 -1 0 0
605 1 3.461606378675893 3.6096068969632213 14.271284551842314 0 0 0
580 1 -0.03715290900448928 1.847859005235559 16.052784845413896 0 0 0
603 1 1.6932884300737778 3.4502460700974678 15.974101325583439 0 0 0
439 1 5.3012853658493055 21.316682816567013 12.396240352811924 0 -1 0
444 1 7.1199689452162405 1.6557268881404934 12.35497107898687 0 0 0
463 1 5.39941177216068 3.420651963654994 12.415522402776089 0 0 0
582 1 5.323786125338612 1.7035614596513011 14.264865125593566 0 0 0
609 1 7.117393117499348 3.500396830920884 14.198842070043293 0 0 0
588 1 6.993912275238124 1.7429443392536184 16.04017961514227 0 0 0
743 1 19.587321013373653 0.018221193252266232 19.48601238407025 0 0 0
443 1 8.8465314170564 -0.0483048459085301 12.390105253916001 0 0 0