LAMMPS data file via write_data, version 29 Oct 2020, timestep = 300000

864 atoms
1 atom types

-0.11054384148459384 21.37454384148434 xlo xhi
-0.11054384148459384 21.37454384148434 ylo yhi
-0.11054384148459384 21.37454384148434 zlo zhi

Masses

1 58.933

Atoms # atomic

8 1 3.593204515399023 1.6103121330172046 1.8154329185146896 0 0 0
27 1 1.7930362412931198 3.341283602640758 1.8094723655605751 0 0 0
146 1 1.7780612507451592 1.5326758712347732 3.329469857171516 0 0 0
173 1 3.4845543336461624 3.350684816070783 3.4929617956935033 0 0 0
4 1 0.03622693860911799 1.550967538049372 1.7874566637446865 0 0 0
29 1 3.4235094301830227 3.4593661850819593 -0.03655132920350147 0 0 0
149 1 3.690267525169166 21.35883625695889 3.5608598864506598 0 -1 0
2 1 1.7736379230039716 1.4565346423730408 -0.07068467251272081 0 0 0
12 1 7.150417514926529 1.6942966722749102 1.6533675018767084 0 0 0
31 1 5.191714697158346 3.8057793456249964 1.75236248691676 0 0 0
150 1 5.4454025208827845 1.5734719945345494 3.456411746716059 0 0 0
177 1 6.945993164700591 3.5628025975817694 3.3661690086906004 0 0 0
153 1 7.127971482543417 -0.0654755754693433 3.3094696042295255 0 0 0
33 1 6.886614352645334 3.584920696919902 0.06112509485479223 0 0 0
151 1 5.524711004415214 21.34503180890715 5.174461848264515 0 -1 0
7 1 5.315538994253221 21.290969942578485 1.5964228053007563 0 -1 0
16 1 10.641101151518791 1.7329001868681917 1.8364531096363277 0 0 0
35 1 8.787526744638091 3.4059848413839386 1.577544782018796 0 0 0
39 1 12.48524542361569 3.367165184747605 1.711763431115998 0 0 0
154 1 8.830752803514823 1.9490715340762303 3.3975653773576684 0 0 0
158 1 12.534806609062318 1.768838370615647 3.495432888283007 0 0 0
181 1 10.794419304289582 3.464144820823617 3.504891365758092 0 0 0
160 1 10.592911225875188 1.7693822574320202 5.186436061254281 0 0 0
11 1 8.81170544885126 21.332807766284027 1.73810853782543 0 -1 0
15 1 12.330007738173837 21.31243002092903 1.6966681783116526 0 -1 0
13 1 10.339763486386007 -0.054167653548306036 0.0595291580499262 0 0 0
183 1 12.424308321016625 3.5508194781096822 5.272437577368707 0 0 0
14 1 12.555325239495884 1.37534245269398 -0.06171845980382987 0 0 0
37 1 10.663098045512335 3.2800247818633586 -0.1014744951068755 0 0 0
20 1 14.1231121907153 1.5060666501793276 1.5877592662038433 0 0 0
43 1 16.05778956301903 3.240631617762363 1.8212179164256612 0 0 0
162 1 16.13910590728468 1.577917430836721 3.554870377487557 0 0 0
185 1 14.229531303194653 3.431623044244828 3.392244152647523 0 0 0
163 1 16.110696847454072 21.325136348060983 5.284066626908155 0 -1 0
164 1 14.233349431474181 1.6719512724245065 5.2913714028659005 0 0 0
41 1 14.203271114791498 3.4073352936754135 -0.048992718571846554 0 0 0
25 1 0.07205488941868765 3.5347062610179627 -0.07071331478238943 0 0 0
169 1 -0.006247975085599933 3.3665071637731603 3.4999913061863275 0 0 0
24 1 17.877840111846815 1.7919640405088715 1.5192420316551118 0 0 0
47 1 19.565871510017743 3.548309269908036 1.7573835291518483 0 0 0
166 1 19.619479740720813 1.8537754492458822 3.4745329154391174 0 0 0
189 1 17.64583224824871 3.4956848941746816 3.3760555850085714 0 0 0
165 1 17.952459045896646 0.1600857347045183 3.444133275847212 0 0 0
23 1 19.739925910865793 -0.03705469539669168 1.5742245566009867 0 0 0
167 1 19.70256164897299 0.016948555492779765 5.445728895974424 0 0 0
191 1 19.821683944009678 3.4412783676298817 5.363899673690221 0 0 0
22 1 19.580811042169692 1.7150955415670655 -0.10845718550036929 0 0 0
32 1 3.4632760926883672 5.454804162494802 1.8005366206633924 0 0 0
51 1 1.6958283133363208 7.173442941489267 1.5239372514834888 0 0 0
170 1 1.7554481679919849 5.197439833239982 3.519744623931804 0 0 0
197 1 3.50030689815581 7.1162910205702845 3.48144009535935 0 0 0
26 1 1.9211620373153258 5.139929351235779 0.036680803366526404 0 0 0
195 1 1.5852946284189091 6.817769725985825 5.135108835977996 0 0 0
453 1 17.794345114297222 0.007955964254477976 10.583049869366345 0 0 0
36 1 7.09707411129936 5.371337394464618 1.776912347540537 0 0 0
55 1 5.205788760692442 7.159765854940656 1.6065807126056997 0 0 0
174 1 5.500919269133639 5.285098635563642 3.526258305292724 0 0 0
201 1 7.14644971495976 7.139486460086971 3.589825660618433 0 0 0
30 1 5.276489870739603 5.478985790034765 -0.055158485142724895 0 0 0
57 1 7.072361697897177 6.993830935201795 0.10190906098580038 0 0 0
180 1 6.953943303971725 5.220325875412649 5.396831033620078 0 0 0
40 1 10.519875997844485 5.0073772125378255 1.6935413799150654 0 0 0
59 1 8.887383223247696 7.096348855497508 1.7410761412005689 0 0 0
63 1 12.108796618152496 7.022756721728642 1.572465639506814 0 0 0
178 1 8.734105424190302 5.211268991985579 3.5399316432556627 0 0 0
182 1 12.34664285212718 5.395397552132073 3.368241862682943 0 0 0
205 1 10.396496922289154 6.927976822393645 3.511083211609445 0 0 0
34 1 8.78984545454841 5.349783659275478 -0.11027073613282329 0 0 0
309 1 17.83436555291818 0.20762288226618608 7.202518966916131 0 0 0
432 1 17.812341625617087 19.593368255778515 8.931499516302038 0 0 0
44 1 14.10975115169303 5.180455719485947 1.7437442623135484 0 0 0
67 1 15.861457116940917 7.085364176376718 1.4847513848348535 0 0 0
186 1 15.891500871306041 5.202979002731911 3.4645045333445217 0 0 0
209 1 14.150048114420004 6.961141012375846 3.4631000505794307 0 0 0
431 1 19.488562221996524 17.925886549092652 8.931328003973507 0 0 0
28 1 0.08255874830538801 5.2050540199588005 1.6248580399072419 0 0 0
193 1 21.362565053519127 6.940843668092869 3.3978611476583325 -1 0 0
48 1 17.56099638105203 5.293845796471339 1.6978056113469924 0 0 0
71 1 19.436730145197828 6.777638414142193 1.6265819509134936 0 0 0
190 1 19.576856164349365 5.126805526395381 3.441228203647736 0 0 0
213 1 17.513185950925028 6.9023620881809125 3.5005008226079046 0 0 0
430 1 19.498375445039173 19.510287076460493 7.085723254409274 0 0 0
429 1 17.837230314588282 17.859443765155824 7.0200413000336646 0 0 0
172 1 21.372464856330474 5.238240388272211 5.23600341238979 -1 0 0
192 1 17.756735469055556 5.266424789172862 5.245051034966648 0 0 0
56 1 3.4679515671462564 8.938555171037194 1.7147260058486289 0 0 0
75 1 1.677294208895523 10.510686136058174 1.4059917400582576 0 0 0
80 1 3.4698400812872965 12.713589156807275 1.4746709170628083 0 0 0
194 1 1.5499763812453433 8.854130535083998 3.3898216018117284 0 0 0
218 1 1.470123908896552 12.461676933567686 3.435395544317487 0 0 0
221 1 3.3935856926569623 10.732407759526124 3.4963937425232876 0 0 0
217 1 21.25726610559683 10.610812916833927 3.518073479024365 -1 0 0
311 1 19.4808157325402 21.265565688153572 8.797551943436499 0 -1 0
428 1 14.07689895159323 19.609888822043807 8.902851183499706 0 0 0
60 1 7.252106580693137 8.772340944198275 1.7909308501880534 0 0 0
79 1 5.074931894300142 10.831643976591245 1.6131096590123915 0 0 0
84 1 7.041454679192683 12.461374224034085 1.4345256560552562 0 0 0
198 1 5.344771165479751 8.867418734620571 3.52714411118901 0 0 0
222 1 5.177258447370092 12.451804125329474 3.448260792475289 0 0 0
225 1 7.026001519693795 10.57600878581628 3.4221563461018745 0 0 0
81 1 7.058660177584525 10.549693224723901 -0.0358384525055533 0 0 0
54 1 5.239813127106443 8.933112286392056 0.07487207862360445 0 0 0
64 1 10.711212252618246 8.891281841969306 1.7060570859707738 0 0 0
83 1 8.97003309025739 10.665240971195642 1.5343779722227808 0 0 0
87 1 12.445697855815366 10.42761520274339 1.7378985525797515 0 0 0
88 1 10.702615934393334 12.355385867858562 1.444213231899731 0 0 0
202 1 9.029133964450729 8.83274099292556 3.6636319416660177 0 0 0
206 1 12.506780681230795 8.749305631045642 3.627075850849153 0 0 0
226 1 8.980045348793082 12.349590889530885 3.468230719194588 0 0 0
229 1 10.710177657444977 10.62648743960535 3.5306680295868897 0 0 0
230 1 12.324466452003389 12.485929207223284 3.5547366643368226 0 0 0
427 1 15.789500351738642 17.805267702055772 9.034208344394408 0 0 0
231 1 12.533547032829022 10.824991853144947 5.238605209460341 0 0 0
426 1 16.038768618431654 19.653215925490144 7.132226234758647 0 0 0
68 1 14.156007876584258 8.776410560502791 1.559261776523727 0 0 0
91 1 15.876104293860704 10.728158395121058 1.6743582703605082 0 0 0
92 1 14.337321723464004 12.615911734646897 1.7898031236475134 0 0 0
210 1 15.859945047633252 8.714142486125832 3.3498840564935075 0 0 0
233 1 14.345827357221962 10.632193081461246 3.5390433451697856 0 0 0
234 1 16.12684808760544 12.449492680249145 3.588079559619722 0 0 0
236 1 14.28117666175322 12.402794702359508 5.346670221861457 0 0 0
90 1 16.112032053245223 12.680515962367227 -0.09496070649643314 0 0 0
52 1 21.15901940915544 8.88210347385697 1.4880244712886048 -1 0 0
76 1 21.092569241029146 12.27623592000969 1.573598498130287 -1 0 0
72 1 17.71638974569909 8.851213884413347 1.490109768885129 0 0 0
95 1 19.39640242045172 10.631195341918824 1.7399717159537924 0 0 0
96 1 17.628956849318826 12.596872964106005 1.7800901682534453 0 0 0
214 1 19.473653189722754 8.809992832700816 3.6153331090652254 0 0 0
237 1 17.638621978732218 10.592418390330527 3.3336491877627616 0 0 0
238 1 19.431233619471328 12.450859114790726 3.574489796761171 0 0 0
240 1 17.848009526972817 12.29998621101811 5.261935577574518 0 0 0
196 1 0.031075728214602805 8.785333714349647 5.133499804364087 0 0 0
99 1 1.7080409669253858 14.247025848450422 1.464891698229965 0 0 0
104 1 3.6173318054381904 16.12308514205216 1.5809415201383834 0 0 0
242 1 1.5543274124557769 15.809904824729443 3.432352162361648 0 0 0
245 1 3.4693484849951077 14.301877637151346 3.3935811307395283 0 0 0
241 1 21.332172348875872 14.042224454383797 3.4728076015001905 -1 0 0
100 1 0.08353026058725474 16.223589842917022 1.4365578496897837 0 0 0
425 1 14.132064640469192 17.685659110262577 7.0635737813034485 0 0 0
570 1 16.10764255784612 19.716320457520105 10.629049926443127 0 0 0
103 1 5.383498484970704 14.179601443813379 1.6097202499907495 0 0 0
108 1 7.269169123978029 15.854334100283152 1.788147583255972 0 0 0
246 1 5.487414165978113 15.922232132485169 3.3281545582153877 0 0 0
249 1 7.109617291172572 13.987973534261451 3.3421197309072865 0 0 0
252 1 7.116084050691725 15.885721442147592 5.1996473835616825 0 0 0
307 1 15.805082969504747 21.289609551589997 8.983323064960485 0 -1 0
107 1 8.943697708708505 14.100971088827363 1.5990634929409375 0 0 0
111 1 12.492981903004702 14.284631965953647 1.3255847216909693 0 0 0
112 1 10.649520023375977 15.869140046461352 1.689473726774874 0 0 0
250 1 8.802784569021993 15.74098631832749 3.5806607181392565 0 0 0
253 1 10.642871366103796 14.062467290387316 3.7344379407831547 0 0 0
254 1 12.326551430324523 15.936384585658272 3.5818857830836217 0 0 0
255 1 12.551919049944072 14.096718463209074 5.433884546210191 0 0 0
251 1 8.741300574806255 14.095604837644274 5.363663499286534 0 0 0
106 1 8.85796809352602 16.16417479036908 -0.09809953671039036 0 0 0
115 1 16.04612471921434 14.542896142207146 1.6715403899203172 0 0 0
116 1 14.195376406787624 16.076774507778786 1.5566669665182618 0 0 0
257 1 14.329995370148724 14.197596831620382 3.389307254403078 0 0 0
258 1 15.958722289798326 16.18026680172887 3.581389180054437 0 0 0
275 1 8.83658543715665 17.883092373469296 5.175569799016876 0 0 0
260 1 14.273930856130253 15.890051668354085 5.372862122942281 0 0 0
119 1 19.503562612605172 14.226983020914279 1.7020234872795326 0 0 0
120 1 17.918191106935573 16.00081363554861 1.6564925332586597 0 0 0
261 1 17.689224990636816 14.269528279842044 3.507604010782216 0 0 0
262 1 19.559094454712486 15.96363538135484 3.531381407613967 0 0 0
303 1 12.443683178622067 21.320727649869546 9.094106581706347 0 -1 0
264 1 17.769631393702 16.0881572127906 5.110610174877336 0 0 0
424 1 10.749611633601836 19.55483936077443 8.797856988848125 0 0 0
145 1 0.03175653564444647 21.106811174487547 3.240922112823818 0 -1 0
3 1 1.8317661017226472 21.16307899690714 1.6627033656606265 0 -1 0
123 1 1.7920157442714726 17.726302971908638 1.6841942780376173 0 0 0
128 1 3.641084274191498 19.472437834639535 1.9383244571329343 0 0 0
266 1 1.7907084198471506 19.499986776565002 3.5458059330944227 0 0 0
269 1 3.58192022176847 17.587422976003133 3.5869181394264387 0 0 0
124 1 -0.05257607025731942 19.334008519706465 1.6048723843318362 0 0 0
272 1 3.594904781248647 19.583717387826823 5.1858240929464685 0 0 0
265 1 -0.011662881125117555 17.57855387342466 3.457374134656202 0 0 0
268 1 21.344508403054338 19.5719848247629 5.160084835343464 -1 0 0
267 1 1.579562081355231 17.639602881216497 5.126371524306997 0 0 0
127 1 5.407180640522402 17.807315457257992 1.6931780883192047 0 0 0
132 1 7.090968646656327 19.647306907223978 1.6106476360785937 0 0 0
270 1 5.40609710546036 19.506438727678535 3.5089585591516506 0 0 0
273 1 7.214209941057223 17.862318521694675 3.3750955904775166 0 0 0
276 1 7.16030311389429 19.44006252824707 5.423224909505277 0 0 0
126 1 5.361054114663819 19.53284145429027 -0.06851203393445489 0 0 0
271 1 5.379708692152029 17.607183602717768 5.201320082308969 0 0 0
157 1 10.679400663126566 -0.06790398694542432 3.401277562968638 0 0 0
131 1 8.888193698931989 17.873897555464715 1.6178208037393118 0 0 0
135 1 12.363851183480785 18.18118804467162 1.5901223583387127 0 0 0
136 1 10.528373362962968 19.592143952271307 1.7174845769137461 0 0 0
274 1 8.881468970825907 19.712393077425133 3.557758156350687 0 0 0
277 1 10.49454278446173 17.685904662983162 3.335968734995233 0 0 0
278 1 12.3749101746609 19.625767803932014 3.5727502483229294 0 0 0
159 1 12.490566948298559 0.13746969221609362 5.295155789087466 0 0 0
423 1 12.533014926076879 17.75710404960254 8.810462971467254 0 0 0
301 1 10.707396645442183 -0.017583813206364596 7.039669111301025 0 0 0
155 1 8.907991732566254 -0.05376778073794242 5.317724143385557 0 0 0
279 1 12.50357567780248 17.66658774980985 5.292139804392545 0 0 0
280 1 10.760970595495795 19.56308750822545 5.227788120353712 0 0 0
161 1 14.223005290175518 21.326276685528576 3.433038243050402 0 -1 0
19 1 16.111765165163952 0.12609488552136838 1.6958954736233165 0 0 0
139 1 16.029526252465836 17.741047684437987 1.7090965293245288 0 0 0
140 1 14.243188063803004 19.573311619184103 1.7019923220310165 0 0 0
281 1 14.129426526909032 17.75099463077421 3.600054331577093 0 0 0
282 1 16.015378234646505 19.6301052888101 3.503900258496939 0 0 0
284 1 14.261769894451737 19.523925850190473 5.371100121450952 0 0 0
283 1 16.03435520515228 17.89547022988276 5.407292890193572 0 0 0
422 1 12.540799446951075 19.63210459753705 7.042605322372398 0 0 0
287 1 19.534628706098474 17.830550771444358 5.273374702481953 0 0 0
288 1 18.013617953506355 19.72802393588998 5.2041087540250555 0 0 0
143 1 19.570698739790537 17.795787339166843 1.7077981640899593 0 0 0
144 1 17.75083584658048 19.71985694968611 1.7957789944701679 0 0 0
285 1 18.017728502303953 17.724438149747222 3.4075528494234364 0 0 0
286 1 19.70251195281731 19.53378418971669 3.371192401765535 0 0 0
289 1 21.299764465245904 21.144707585649655 7.066757364018813 -1 -1 0
152 1 3.561860293010032 1.711401220225387 5.289093220349634 0 0 0
171 1 1.692793708647397 3.395104090014143 5.231911827560951 0 0 0
290 1 1.529139496167622 1.6143455667931956 6.97242729482862 0 0 0
296 1 3.3260832336186485 1.6658110219362412 8.726969643920047 0 0 0
315 1 1.759538024660716 3.323616062324268 8.939442263192102 0 0 0
317 1 3.5828079185079913 3.4464788333370215 6.960944035315025 0 0 0
292 1 0.04808020764162807 1.4766049930312881 8.796983950103755 0 0 0
291 1 1.6086993743533533 21.15063742633837 8.82217675677254 0 -1 0
147 1 1.8383134542744453 21.359217536776583 5.154057300657931 0 -1 0
156 1 7.153778827459853 1.516595694959818 5.185260082307775 0 0 0
175 1 5.281226509988571 3.3988581275902554 5.152420279359651 0 0 0
294 1 5.341847295619275 1.7001726080402388 6.95206147725657 0 0 0
300 1 7.129441489914585 1.6218284448612295 9.024433030723769 0 0 0
319 1 5.258183571175471 3.3648218060878996 8.878003686304668 0 0 0
321 1 7.157512212340776 3.3250729051157317 7.154785051568648 0 0 0
438 1 5.128258444685117 1.614386870145995 10.569515367827305 0 0 0
295 1 5.170011386746209 -0.09844024745137371 8.68162040517096 0 0 0
418 1 8.844990183895405 19.78820123767526 6.897483761954135 0 0 0
179 1 8.773265513800926 3.4301395210520123 5.173132932943042 0 0 0
298 1 8.768724366226328 1.6723320818467309 6.9357309077926255 0 0 0
302 1 12.376227619734118 1.728905934719697 7.068775068327455 0 0 0
304 1 10.600355070759091 1.830177174966832 8.976618191209447 0 0 0
323 1 8.846966159720521 3.2860019683592814 8.72821642900568 0 0 0
325 1 10.595515362552623 3.330195616658086 7.007341387765677 0 0 0
327 1 12.388326242025384 3.590435180640375 8.943843284033758 0 0 0
299 1 8.965278686684517 -0.07988101406886478 8.848808788777887 0 0 0
419 1 8.896608093281825 18.024923780199614 8.749258517777452 0 0 0
446 1 12.276265282735189 1.849173161358201 10.58315624879913 0 0 0
421 1 10.756238726015933 17.87218336531121 6.942534490173625 0 0 0
187 1 16.049405552533834 3.4724710066403306 5.335066937675731 0 0 0
305 1 14.25605302895174 0.06064839694112176 7.1513034125672235 0 0 0
306 1 15.925204416484805 1.6244517534769687 7.144765254641781 0 0 0
308 1 14.086102865886668 1.7095786049906925 8.970033742558538 0 0 0
329 1 14.327782110740445 3.5251608080306256 7.0472196808762675 0 0 0
331 1 15.867405385163668 3.277662561565351 9.007450392763884 0 0 0
450 1 15.990884768209133 1.4250783629488504 10.574751387360909 0 0 0
473 1 14.076041493536446 3.559073217588528 10.576360141759185 0 0 0
148 1 -0.018735354849226837 1.618619722465407 5.090511069594314 0 0 0
168 1 18.001517503682265 1.8465116790643585 5.315136807709288 0 0 0
313 1 0.07576049751509828 3.5109643625455424 7.228610316624569 0 0 0
310 1 19.719015317813145 1.6730943017159576 7.22136722366468 0 0 0
312 1 17.766322749624663 1.8255685734794838 8.909499775590733 0 0 0
333 1 17.85914202450516 3.4599326647817645 7.211647570202198 0 0 0
335 1 19.742445169385746 3.4459972396313145 9.05231572001528 0 0 0
454 1 19.658612994279025 1.5944324297851356 10.556619286362086 0 0 0
176 1 3.4187713083754137 5.361393641022048 5.274282477571317 0 0 0
314 1 1.8626490986633608 5.213373640384115 7.0009732507621685 0 0 0
320 1 3.295938166044494 5.283832018677663 8.827598487272576 0 0 0
339 1 1.4565735552488797 6.809920130489634 8.760499914665681 0 0 0
341 1 3.2383272417946016 7.080565639674537 6.9891140383774975 0 0 0
337 1 21.315098880554327 6.804808581567198 7.01541127792359 -1 0 0
485 1 3.352909617240995 7.059915373179042 10.418190528036067 0 0 0
458 1 1.6679796090647807 5.175626554320304 10.615275144204668 0 0 0
199 1 5.321695667177104 7.134602647797279 5.236403810457427 0 0 0
318 1 5.0792774347043865 5.314006775282908 7.04086663692912 0 0 0
324 1 6.8084848361023 5.250976479979064 8.923633810360085 0 0 0
343 1 5.235741487692514 6.992333163771136 8.894089130919253 0 0 0
345 1 6.940068659569529 6.954033368784174 7.14480530027256 0 0 0
489 1 6.969269882342667 7.092810780796608 10.60702290525153 0 0 0
184 1 10.658294173930292 5.165231995117521 5.237262704890136 0 0 0
207 1 12.294224273888338 6.869735477883266 5.4818769455725 0 0 0
203 1 8.854460765772538 6.992210608400293 5.453544536315806 0 0 0
322 1 8.764404044181502 5.1738921517847425 7.038479479463896 0 0 0
326 1 12.415282363799356 5.132933093442608 7.177887177835213 0 0 0
328 1 10.549889182367435 5.267802856294044 8.802586313438967 0 0 0
347 1 8.721225291109057 7.0518127536697195 8.847893404634132 0 0 0
349 1 10.66829021546729 6.973838383618604 7.056632081436163 0 0 0
351 1 12.29824470630588 6.906117368834911 8.793287225128113 0 0 0
211 1 15.842209358452084 7.0868822549134025 5.19705810115573 0 0 0
188 1 14.12978300933261 5.314900353345115 5.343051496273434 0 0 0
330 1 15.958616601706678 5.215212612012549 7.0668177853179746 0 0 0
332 1 14.20223013079981 5.267747756150308 8.763334296968724 0 0 0
353 1 14.144818439378186 7.0702577382988245 7.12617139343113 0 0 0
355 1 15.955613892370605 7.079785407294504 8.851993063932001 0 0 0
215 1 19.50876554753463 7.106253194748194 5.302156486792016 0 0 0
316 1 21.232869832798926 5.329478338879324 8.929532188819497 -1 0 0
334 1 19.70377566097966 5.059300416659959 6.999813349043787 0 0 0
336 1 17.987594130087274 5.4366927922299 8.879257432144481 0 0 0
357 1 17.59806598783218 7.071639818755997 6.928392507122573 0 0 0
359 1 19.620745320078534 6.976624846261993 8.946284402577897 0 0 0
558 1 5.283509745759497 19.594160253424 10.581135778991422 0 0 0
219 1 1.7039783488139166 10.600168434909634 5.200434903177002 0 0 0
224 1 3.390433911428023 12.678445707785487 5.408569918216264 0 0 0
200 1 3.5560543736722146 8.914538047069636 5.077596936576331 0 0 0
338 1 1.458609437308888 8.74741330687645 6.905720711649385 0 0 0
344 1 3.4744340339433752 8.923516790229336 8.659440587068465 0 0 0
362 1 1.6130325220341761 12.62810985726738 7.085760764485829 0 0 0
363 1 1.6173686778749532 10.58316052704795 8.640603764418948 0 0 0
365 1 3.429017268299126 10.52525943133526 6.899789134150225 0 0 0
368 1 3.3143634883505335 12.316436696584178 8.676793114043067 0 0 0
361 1 21.193684962586133 10.594561968293476 7.065074451357754 -1 0 0
340 1 21.26343231963649 8.76990639745315 8.793827706709239 -1 0 0
364 1 21.27401338292389 12.339158325182902 8.832364793137154 -1 0 0
561 1 7.108492794517321 17.68865821756058 10.51727266072061 0 0 0
482 1 1.7893410143067905 8.86177772588551 10.499383582617924 0 0 0
228 1 6.981274205106027 12.417039029602636 5.193634112784225 0 0 0
223 1 5.346777215679753 10.576782002369931 5.2556047764152884 0 0 0
204 1 7.076164463134849 8.806310465975507 5.38500937866932 0 0 0
342 1 5.34154020880523 8.677865405964457 7.157279970049392 0 0 0
348 1 7.095094464300293 8.876119294142502 8.817778263441813 0 0 0
366 1 5.321212184623902 12.401961058152937 7.236265855037838 0 0 0
367 1 5.317843332496478 10.65286796640581 8.864069675325402 0 0 0
369 1 7.123839358821167 10.712140700211163 7.020427816116734 0 0 0
372 1 6.968168785623906 12.36747300832051 8.982625604257635 0 0 0
414 1 5.271745813103376 19.419668008649005 6.986986070176898 0 0 0
227 1 8.89214787902639 10.618754652775426 5.224908152498565 0 0 0
208 1 10.6694429071677 8.927760407403365 5.267234588641531 0 0 0
232 1 10.669698821155373 12.317978746506101 5.475318745680548 0 0 0
346 1 8.894746689941426 8.817753245777707 7.1235188647540415 0 0 0
350 1 12.314032339729504 8.75953018466158 7.07251568645024 0 0 0
352 1 10.62392731837376 8.756824147396124 8.697430188677831 0 0 0
370 1 8.871449184733018 12.257161410604935 7.00229190097711 0 0 0
371 1 8.785250076315835 10.611219629937795 8.897627925740542 0 0 0
373 1 10.628564415015626 10.565319476644255 7.161022701289716 0 0 0
374 1 12.563828184872838 12.527675137738779 7.207975384617282 0 0 0
375 1 12.530267218124113 10.715183315220065 8.838563316527038 0 0 0
376 1 10.733693491962855 12.457910456941354 8.7345739716697 0 0 0
514 1 8.858874862760047 12.569884049457988 10.513177887811858 0 0 0
517 1 10.841352225135424 10.521451240432798 10.395753750445277 0 0 0
212 1 14.009723394839146 8.7903397344415 5.367290895010158 0 0 0
235 1 15.989937105449998 10.626286496744731 5.362064420608543 0 0 0
354 1 15.877580701200344 8.716684418083311 7.061827903519958 0 0 0
356 1 14.0254729982121 8.682363289759952 8.917820533784463 0 0 0
377 1 14.314638699270919 10.830376385826527 7.181374870890101 0 0 0
378 1 16.080128290671794 12.430198710807755 7.193271973700464 0 0 0
379 1 16.044766009925674 10.46956852827052 9.124496228205576 0 0 0
380 1 14.170138969939886 12.560056806285688 8.918254515011778 0 0 0
498 1 16.0071131048013 8.697662496684408 10.577746876889547 0 0 0
239 1 19.497482842666408 10.476683102413213 5.294861983563083 0 0 0
505 1 -0.04416355078685541 10.757811902323482 10.63195076501003 0 0 0
216 1 17.55847103566213 8.839447759920471 5.218606683498825 0 0 0
220 1 21.316738050053104 12.330795731511369 5.314358648747239 -1 0 0
358 1 19.47126557400494 8.704917740756683 7.085592048919555 0 0 0
360 1 17.881844289219828 8.763097505652024 9.00868022040236 0 0 0
381 1 17.750783374790686 10.638126616041871 7.178227035876013 0 0 0
382 1 19.47627685405648 12.359312528514595 7.184816322358657 0 0 0
383 1 19.551536175264353 10.621206443719474 8.962055461345875 0 0 0
384 1 17.85323624175706 12.421535064748747 9.227206154177471 0 0 0
415 1 5.346803991173918 17.728609496449877 8.739524712070976 0 0 0
417 1 7.0384104565396495 17.58928576011185 7.05512287008888 0 0 0
248 1 3.6677027185906854 15.884219952679002 5.181079573946187 0 0 0
243 1 1.792052014160988 14.352606279812635 5.416317219193112 0 0 0
386 1 1.5755865829254914 16.06882400741062 6.960713421329861 0 0 0
387 1 1.3701399085297912 14.169240014344561 8.780652435586457 0 0 0
389 1 3.5821361820954616 14.301159304571394 7.08112751187103 0 0 0
392 1 3.2227102009834034 16.09419399074976 8.815134241304175 0 0 0
385 1 21.202256537639478 14.310828399964395 7.007108004625491 -1 0 0
244 1 21.194805788669242 15.91255527190601 5.372141014068596 -1 0 0
247 1 5.308666858630851 14.038769791167564 5.1817619121799625 0 0 0
390 1 5.193228356698237 15.859242949108268 6.97337153569016 0 0 0
391 1 5.222410807698351 14.322494354284158 8.79855304017033 0 0 0
393 1 7.026480977925245 14.048350014555623 7.180828636745669 0 0 0
396 1 7.154245913496181 16.01916221744665 8.761297030676918 0 0 0
256 1 10.638727626982233 15.902866244550362 5.2304791033117555 0 0 0
394 1 8.980815351325067 16.169952696752915 6.919481310840325 0 0 0
395 1 8.779618312611479 14.249288444182548 8.652845400415732 0 0 0
397 1 10.724039569966461 14.297046549565614 7.013031755766732 0 0 0
398 1 12.414089395680431 15.972495479246499 7.167052895774067 0 0 0
399 1 12.443779363778518 14.27907230687702 8.901064555170091 0 0 0
400 1 10.528991351550054 16.09361776578372 8.86045560315169 0 0 0
541 1 10.683524394177532 14.049569700085941 10.624395747709704 0 0 0
542 1 12.404097813668004 16.043555009045058 10.606764332405524 0 0 0
259 1 16.05845132213794 14.250179463659313 5.29229508048412 0 0 0
401 1 14.346236043036 14.292982004837969 7.1540809704655075 0 0 0
402 1 16.009194582109323 16.08230329897733 7.133523746981863 0 0 0
403 1 16.184005757506206 14.269428321276717 8.95255502204868 0 0 0
404 1 14.09161532116741 16.099283613631393 9.123139810045597 0 0 0
420 1 7.060162513818346 19.76519001973766 8.801535013284328 0 0 0
297 1 6.999842435514927 21.311933407948892 7.123766132302925 0 -1 0
263 1 19.55360718016825 14.138175935797356 5.097364627614606 0 0 0
408 1 17.855385103053344 16.098864036487434 8.824088410158865 0 0 0
407 1 19.39694661620682 14.180760036009183 8.728784376437023 0 0 0
406 1 19.455300568418558 16.1081454031114 7.194957890361372 0 0 0
405 1 17.839081517364583 14.207887588128713 6.865805339516789 0 0 0
388 1 21.32855624023658 16.13203281287025 8.816024045445108 -1 0 0
416 1 3.522130594571763 19.53132875162644 8.780112241553285 0 0 0
550 1 19.551593645892524 16.08185235638429 10.617220001391889 0 0 0
412 1 21.19911879946089 19.565144999324467 8.955371648931951 -1 0 0
293 1 3.3173687993744188 21.18813076987336 7.128664669182408 0 -1 0
409 1 -0.09533114402316664 18.02081266027502 7.112210245657377 0 0 0
413 1 3.401162505166343 17.785207840876673 6.880096412415321 0 0 0
410 1 1.7019101940280543 19.557295418937542 6.697382039338978 0 0 0
411 1 1.6656934421353045 17.937218659624882 8.980046630498363 0 0 0
434 1 1.9062802935959384 1.4602333885426597 10.489772085687209 0 0 0
141 1 17.666274184514265 17.9480638813301 -0.026094599178946964 0 0 0
142 1 19.491100434516234 19.525107172319196 -0.018161372587265134 0 0 0
457 1 -0.028485824521633257 3.1223648632542513 10.545270500789947 0 0 0
445 1 10.645771847376183 21.322209984354807 10.564816479559234 0 -1 0
477 1 17.75176839559026 3.5096039718222705 10.553418888894013 0 0 0
462 1 5.330161176799392 5.308554902648817 10.60091180023355 0 0 0
470 1 12.39331226223671 5.311398380747315 10.590582452990741 0 0 0
493 1 10.661893027053107 7.040757059573819 10.537225882922089 0 0 0
474 1 16.119494692565873 5.286132381245387 10.455436803839735 0 0 0
486 1 5.085313148203236 8.829231510399152 10.615665809735116 0 0 0
494 1 12.397292435233261 8.73958671164582 10.486238158435173 0 0 0
521 1 14.153210896801138 10.686639795952685 10.613563499961897 0 0 0
533 1 3.196904360011699 14.087189623568882 10.541801983425689 0 0 0
530 1 1.543537068214619 15.978792824696269 10.440332418296025 0 0 0
537 1 6.990111805251808 14.15696729607984 10.364333388521166 0 0 0
538 1 8.888220468561478 16.053633775820316 10.503902329533263 0 0 0
437 1 3.559457077345669 21.327313016308445 10.527638804593444 0 -1 0
557 1 3.3451017918336676 17.672546035497206 10.59517186384977 0 0 0
565 1 10.497275938695196 17.84992701536111 10.534893869376464 0 0 0
6 1 5.271725687959572 1.7482970289783162 0.006764458794648931 0 0 0
138 1 16.180843216602902 19.69389063879329 0.0942681987948717 0 0 0
10 1 8.881050367940952 1.6089166163490418 -0.02110921974659874 0 0 0
45 1 17.73183449285586 3.6099897411454003 -0.0032730881258373756 0 0 0
42 1 15.921358773895294 5.2696830177713 -0.004790076482628081 0 0 0
49 1 21.048698236867992 6.89658097813371 -0.10133674774262147 -1 0 0
58 1 9.012915113921983 8.880420505845201 -0.10473563646150552 0 0 0
85 1 10.797950572392116 10.484529569390077 -0.09740768558320667 0 0 0
89 1 14.078587292546404 10.773759921421561 -0.05791727318307238 0 0 0
114 1 16.171210173583887 16.002023078327568 -0.10952643883062763 0 0 0
125 1 3.612846408129168 17.83695885121962 -0.09402225147666599 0 0 0
122 1 1.8722595067083825 19.42418793997195 -0.026350628981319346 0 0 0
440 1 3.687910948864885 1.5483591172631361 12.487227515606987 0 0 0
459 1 1.6071533147285901 3.5356873677587894 12.340873687716542 0 0 0
578 1 1.6855436070712817 1.7910786616215097 13.954519415202366 0 0 0
605 1 3.351185175949111 3.368109960452666 14.24958778525275 0 0 0
581 1 3.4612041369483086 21.365006523035937 14.433799281276729 0 -1 0
579 1 1.6732710121288916 21.268571054079167 16.10324627749675 0 -1 0
603 1 1.8308153279285653 3.4763056665929017 16.038547780711582 0 0 0
461 1 3.415286589499995 3.334781977003809 10.753977718572528 0 0 0
1 1 -0.06459146871547716 21.23838971365339 21.329235604268405 0 -1 -1
743 1 19.408635054544398 21.325154585992365 19.55995646526369 0 -1 0