LAMMPS data file via write_data, version 29 Oct 2020, timestep = 300000

864 atoms
1 atom types

-0.3712991981605249 21.63529919816131 xlo xhi
-0.3712991981605249 21.63529919816131 ylo yhi
-0.3712991981605249 21.63529919816131 zlo zhi

Masses

1 58.933

Atoms # atomic

146 1 1.642126694382334 1.9852131736195995 3.9803650614340906 0 0 0
8 1 3.12175895416379 1.9779645327075102 1.8516643513679325 0 0 0
27 1 1.3296207132685018 3.7304598906974435 1.5526462618456796 0 0 0
173 1 3.1576912690305092 3.820048805446091 3.58915588891459 0 0 0
266 1 3.1635925124205486 0.3117712301213983 3.6576263016771824 0 1 0
4 1 0.056175982816507264 1.6166858651082021 2.0356308147871816 0 0 0
3 1 1.2826038226195633 21.54842653432576 1.9194662452018711 0 -1 0
289 1 1.4472573661035435 21.193709763442087 5.3366999520619025 0 -1 0
150 1 4.927463339745003 1.9862247103999726 3.6046135454612194 0 0 0
6 1 7.022023599415016 2.079102146168399 1.491637166226435 0 0 0
31 1 5.032392856707858 3.0033500517993756 1.1561166648133225 0 0 0
177 1 6.797995762134487 3.2479196031346866 3.4207434774851633 0 0 0
153 1 6.359342824039818 -0.13989669185758097 3.023769466580872 0 0 0
7 1 4.312904563849912 -0.09011857088055547 1.3664084321877614 0 0 0
550 1 19.847918438251938 15.614634827352727 10.159071101783704 0 0 0
154 1 8.807926598576367 1.7282042307491876 3.1478743359362884 0 0 0
16 1 10.810631704554165 1.3414942516276618 1.4012428498189593 0 0 0
181 1 10.605056389287203 3.437340782255453 3.4408217339411507 0 0 0
15 1 12.472860445108566 21.43468290286581 1.2985054517639882 0 -1 0
11 1 8.656788885664126 -0.3138635296404182 1.6750278205483347 0 0 0
35 1 8.460614922576234 3.7076243172828507 1.1784968441232435 0 0 0
179 1 10.567585153311773 1.6633663669475114 5.073587069015581 0 0 0
155 1 8.768418359150846 -0.17632317345006607 4.615407905118165 0 0 0
409 1 -0.2818571114360094 17.878619288445403 7.154101229326401 0 0 0
39 1 12.561054884460338 3.703147322972561 1.4855563731665715 0 0 0
158 1 12.331937285391298 1.3947969939734326 3.274892528332668 0 0 0
20 1 14.509178841004024 0.8507769056499224 1.4909828081839354 0 0 0
162 1 15.823027034969325 1.0864012063084596 3.765562290255758 0 0 0
43 1 15.67646575242268 3.45267126609081 1.4812917520770859 0 0 0
185 1 14.467446473042 3.164651454362445 3.346636999926991 0 0 0
161 1 13.826244941725644 21.552000057574965 3.369086394797655 0 -1 0
1 1 21.418462225994546 21.45586686126101 -0.27711087044030785 -1 -1 0
169 1 -0.31831658987007266 3.359797824537432 3.8803457215546144 0 0 0
189 1 18.18748299284819 3.490062270587748 3.341412964228873 0 0 0
24 1 17.963376042899007 1.307299408115268 1.84118050585902 0 0 0
165 1 19.782260819180127 1.1534844385035368 3.1785622881335014 0 0 0
47 1 20.17007986260187 3.1690098358545646 1.9017773012885955 0 0 0
163 1 18.054772410978497 21.319827282393355 3.279756919784621 0 -1 0
309 1 17.898717090414472 21.47869801407754 7.046417623413194 0 -1 0
145 1 21.37290766007466 21.284603356363878 3.5717281229334312 -1 -1 0
23 1 19.896701799800134 21.362835084634707 1.4004532352684644 0 -1 0
412 1 -0.1884835477736094 19.87448609218617 9.023641438451019 0 0 0
51 1 1.1996876912385148 6.6401796085362745 1.3819372841095587 0 0 0
170 1 1.5945592086074354 5.367170270688658 3.483187385184317 0 0 0
197 1 3.6454777517640338 6.865707613634881 3.6796505329488367 0 0 0
32 1 3.43223183748658 5.451103281253368 1.7908146666059546 0 0 0
28 1 21.404533405272126 5.030212318794238 1.2880846809376756 -1 0 0
194 1 1.3509690151227436 8.478064959601774 3.601927716132986 0 0 0
52 1 21.432503957526098 8.699364935551628 1.6808599476852777 -1 0 0
36 1 6.908591528645906 5.426865218555146 1.1444718101756057 0 0 0
55 1 4.885286118282867 7.404628927707919 1.6998918628642277 0 0 0
174 1 5.625550854280399 5.263042358359595 3.1562243155484633 0 0 0
201 1 6.7377042963579346 7.424071661360811 3.1324464102675598 0 0 0
59 1 8.590054457182196 7.059640021333945 1.392158677300713 0 0 0
205 1 8.978464292070925 5.076297187288372 3.2914954267264025 0 0 0
40 1 10.615403797947405 5.297807005880923 1.370442127525823 0 0 0
184 1 10.846916580879483 6.9884803345713244 3.477754771361073 0 0 0
182 1 12.848488998368687 5.403460363087967 3.2171740189369924 0 0 0
63 1 12.30996318313307 6.9372636380847545 1.5791292591802435 0 0 0
349 1 11.019124473102663 5.338955350118224 5.3502484889352875 0 0 0
87 1 10.452887734293897 8.19249640550262 1.4458027708106511 0 0 0
431 1 19.973511168877152 17.83810965099543 9.143470124392467 0 0 0
22 1 19.8917134987481 1.5433960432993037 0.33541777008784035 0 0 0
37 1 10.618712689397787 3.408556718278758 0.12919176042986202 0 0 0
44 1 14.117121601376994 5.4107215931175086 1.3809297460456977 0 0 0
67 1 16.13943607331028 7.1912022231795625 1.297187508868059 0 0 0
209 1 14.551286259014052 7.067721081190813 3.195661276680469 0 0 0
186 1 16.17338117960309 5.302443558795133 3.3943826660923184 0 0 0
478 1 19.767969701610607 5.367704909148353 10.570296643291151 0 0 0
430 1 19.793375281882142 19.922859339264356 7.437518148426881 0 0 0
432 1 17.79280523849211 19.714349493644978 8.98972364499456 0 0 0
193 1 -0.32885747219523154 6.7159171828078685 3.2222381954101533 0 0 0
48 1 17.943115098484466 5.1760334146373115 1.6225231487968093 0 0 0
213 1 17.893750782962837 6.994775612773361 2.883758401438942 0 0 0
71 1 19.847097015205986 6.79236550200429 1.7473900570558567 0 0 0
190 1 19.740000614516862 5.1890422042959345 3.285009061611842 0 0 0
429 1 18.08952553052424 17.960066765130097 7.3711543149275895 0 0 0
77 1 3.4709644757161087 10.458560570786016 -0.35211621181935204 0 0 0
129 1 6.689443999426839 18.476430386532027 -0.040420195242195756 0 0 0
56 1 2.8990834759294177 8.696814699936787 1.526854703986081 0 0 0
75 1 1.1724331085706567 10.421113656705177 1.7451033083776877 0 0 0
221 1 3.006327259715678 11.028943278213696 3.5743696185863083 0 0 0
218 1 1.6275706125974838 12.849659245552077 3.248913784792175 0 0 0
217 1 21.632281844428906 10.772999706169758 3.6048275265577288 -1 0 0
76 1 -0.35231679687749917 12.979759790593665 1.2709535324238947 0 0 0
79 1 3.320113775778668 12.04699560820549 1.0304355588821774 0 0 0
287 1 19.844869368949684 17.767374551120607 4.760829881907057 0 0 0
60 1 7.023707048903977 8.879277845342576 1.3299160615761911 0 0 0
198 1 5.409585322403553 9.079301346476795 3.737101491461207 0 0 0
225 1 4.82446381035289 10.347950970715804 2.009965833210191 0 0 0
393 1 7.45909017447148 10.447291072074654 3.6460795504093335 0 0 0
84 1 7.403490892670731 12.557532806593352 1.3392183928092287 0 0 0
204 1 7.094316540009881 8.754354957327875 5.483778402772184 0 0 0
206 1 12.80531194099945 8.62610667980283 3.230606128290822 0 0 0
202 1 9.148567571550567 8.765570911584193 2.9264835226208734 0 0 0
226 1 8.965318378345666 12.182381973918146 3.2475752134158404 0 0 0
83 1 8.967038033899412 10.509115737818359 1.1830319266995317 0 0 0
229 1 10.802733898579646 10.582638540475243 3.3372308270337827 0 0 0
88 1 10.867949531654153 12.020152981260834 1.0742512582596497 0 0 0
208 1 11.049948595364961 8.712084556573533 5.021022408540149 0 0 0
231 1 12.82041880354843 10.496374364785522 4.9124294840840665 0 0 0
232 1 10.733700539718631 12.349612452582626 5.0228038842926725 0 0 0
92 1 12.29655862119388 10.026745209725584 1.5177882476125115 0 0 0
230 1 12.529703355827701 13.147910062324671 3.256158042914436 0 0 0
227 1 9.200045805180702 10.35058362376075 5.349310416838044 0 0 0
21 1 17.9420931686954 0.03613061803826634 -0.243600014188013 0 0 0
501 1 17.930149663218586 6.769858310024588 10.442697668828872 0 0 0
410 1 -0.09661226648099502 21.572863042231305 7.190970532422782 0 0 0
210 1 16.66539357649109 8.89613259495292 3.1764433290035 0 0 0
68 1 14.18812075594588 8.48440997451548 1.5663563565280896 0 0 0
91 1 16.14674044124329 10.668423273850484 1.4569787308868054 0 0 0
233 1 14.710071786302994 10.355085803425043 3.6707936697731096 0 0 0
234 1 14.481413184236464 12.78761492876981 1.8083823957070986 0 0 0
235 1 16.50236941702423 12.051702921783164 3.3361610422436647 0 0 0
114 1 16.069311952315438 16.12807642214165 0.34050478657133687 0 0 0
212 1 14.238882755845827 8.54780823978852 5.071868766356534 0 0 0
236 1 14.453934656019118 12.714810121720195 5.245608882488592 0 0 0
445 1 10.719066664732306 -0.10464574273220056 10.44597633720327 0 0 0
90 1 15.993017474613957 12.600656878375384 -0.10408970073921853 0 0 0
214 1 19.489783585087842 8.693021565386108 3.222201964350911 0 0 0
72 1 17.942417759493622 8.938627812896174 1.0911020583091693 0 0 0
237 1 18.26291783217005 10.582388066993902 3.422565638248477 0 0 0
95 1 19.554531280627245 10.763457169069074 1.2511966914554893 0 0 0
238 1 20.202904594415532 12.491193696757842 3.9108904996368024 0 0 0
96 1 17.848880089147638 12.420002330498738 1.4988294670106619 0 0 0
465 1 7.119628596604622 3.090152319447197 10.532198257196457 0 0 0
10 1 8.864067964740933 1.6546144659489226 -0.21935838842445365 0 0 0
99 1 1.513569539152732 14.360081063512505 1.506979744081709 0 0 0
242 1 1.421652530660614 16.024028331697934 2.8926586609359584 0 0 0
224 1 3.645282247652113 14.05286013316219 3.2371497014367203 0 0 0
104 1 3.3611185830211974 15.944508635181158 1.6819575086562555 0 0 0
241 1 -0.2975303962985535 14.39769053961732 3.5073512139512095 0 0 0
243 1 1.5092893627572432 14.495743969578442 5.141553901029271 0 0 0
442 1 8.494574179077153 1.4415440793193572 10.503516784429236 0 0 0
505 1 -0.31744059766301036 10.852165419991895 10.512304488473761 0 0 0
220 1 21.612763295991694 12.64997477462851 5.988883608195455 -1 0 0
244 1 0.01357472314419328 16.218036978891227 4.574993872078384 0 0 0
248 1 3.261891728040767 16.188307285078647 5.102119199824659 0 0 0
437 1 3.297349235472283 -0.2904908188156782 10.213825067557316 0 0 0
222 1 5.3279738109191195 12.477732068988246 2.8968708671029 0 0 0
80 1 5.177294819318674 13.947843763110084 1.0466537507674931 0 0 0
245 1 5.409386078314485 16.091178027083476 3.062830659949149 0 0 0
103 1 7.55532814066731 14.148909053071188 3.0722394141997107 0 0 0
108 1 7.021197209898479 15.970485341483368 1.1560898278784437 0 0 0
250 1 8.714775067053829 16.252756256651647 3.1335808148176283 0 0 0
107 1 9.222373750976296 14.107348332425623 1.3676008094833836 0 0 0
112 1 10.854742472381306 16.36310201425213 1.229128836050731 0 0 0
253 1 10.7236430670569 15.02352855747516 3.1985306446080823 0 0 0
111 1 12.473100799164037 14.331905804456476 1.3680763715504842 0 0 0
254 1 12.405163216788246 16.37180394667147 3.4757763300983777 0 0 0
256 1 10.384861378685095 16.463759828412893 5.367664504220153 0 0 0
255 1 12.122448069172979 14.1466416402195 5.249010038674537 0 0 0
546 1 16.30018329920543 16.28256154257278 10.57452607574064 0 0 0
115 1 16.46103997172573 14.227848845948097 1.6741486145716467 0 0 0
116 1 14.296966180194772 16.342674554201455 1.6549379966626585 0 0 0
257 1 14.121082185593322 14.642440737974793 3.20510967208089 0 0 0
258 1 16.107457732157656 16.307133109899908 3.654224052291254 0 0 0
426 1 16.056449906506163 19.527555904698943 7.025699746922824 0 0 0
100 1 21.550913342716914 15.916313431115174 1.0485272662164828 -1 0 0
261 1 18.17537820268973 14.260676030786406 3.7168758143493283 0 0 0
120 1 17.72907316748775 16.306668163137356 1.798067902322594 0 0 0
119 1 19.398596942428846 14.44876731102396 1.6024010560392619 0 0 0
262 1 20.047965894248893 16.032906145134003 3.2084577578872526 0 0 0
263 1 19.92742308896074 14.164679015830497 5.27874522723017 0 0 0
126 1 4.702883836745675 20.108544037146235 0.01866925401948616 0 0 0
147 1 1.2688208780843997 19.48867940509094 3.5262699918608402 0 -1 0
123 1 1.6163295061476273 17.59272036267902 1.069693880585119 0 0 0
269 1 3.080863357851878 18.45975278502109 3.4600278811049097 0 0 0
128 1 2.9053963872187127 19.694811735160762 1.4455598537230174 0 0 0
124 1 -0.1902954228111465 19.69479101442552 1.5882450846000908 0 0 0
45 1 18.11259193002232 3.3214988649121353 -0.036234495820362256 0 0 0
427 1 16.18315575300127 18.02934441904483 9.072842100622589 0 0 0
127 1 5.026591086975331 18.252981625628465 1.9296034641224336 0 0 0
273 1 6.935876149454577 17.72716463181606 3.233873490923686 0 0 0
132 1 6.3869157762739315 19.937719659669632 1.7225233940471045 0 0 0
270 1 4.291447699249924 20.382287292682783 3.4466317621094547 0 0 0
428 1 14.301837432640406 19.542554328909446 8.856387583146603 0 0 0
433 1 -0.08785734709498921 -0.20821312949892873 10.27041926522048 0 0 0
157 1 10.947624098813408 20.818046658528388 3.0212397667822115 0 -1 0
274 1 8.704802386861745 19.789807634071792 2.935827874757881 0 0 0
131 1 9.112619932276544 17.80154775362193 1.0305350852304127 0 0 0
277 1 10.671108352363886 17.855372416691388 3.1247254217862 0 0 0
136 1 10.263855803593932 19.720341689409533 1.0324836540593423 0 0 0
278 1 12.919472961075105 19.41884776143633 3.499378077321867 0 0 0
279 1 12.79419009182132 17.84246072956466 5.370674257249599 0 0 0
135 1 12.344569937966241 18.162133987486577 1.4752794340685231 0 0 0
275 1 8.602162857172392 18.192018909659637 4.721276961720494 0 0 0
121 1 21.39247057244956 17.73400997752109 -0.1403665380907855 -1 0 0
159 1 12.248922179610615 21.624386417918913 5.433958412964541 0 -1 0
19 1 16.379250504453225 21.011558367370835 1.4974850965485733 0 -1 0
139 1 16.09947991688692 18.175482684909973 1.5205734810972888 0 0 0
140 1 14.40903617144057 19.760983563068738 1.4864691004440878 0 0 0
281 1 14.42232781370863 17.943390527422952 3.410079707239211 0 0 0
282 1 15.968134589554044 19.831927638505004 3.6262347644630446 0 0 0
284 1 14.150436570090584 19.927090792804144 5.399967926346843 0 0 0
283 1 16.28976129183702 17.937129270254708 5.406135630225651 0 0 0
307 1 15.819348350464377 21.574505463115592 8.809736766334355 0 -1 0
288 1 18.09918922436235 19.663579599057936 5.014514612700166 0 0 0
268 1 21.343519047527263 19.48028343168636 5.243963840292749 -1 0 0
265 1 -0.2649147102050686 18.00366178253879 2.9957037277676157 0 0 0
143 1 19.80166950834455 17.60005752330588 1.7494505963356146 0 0 0
285 1 17.976566101250544 17.681570656644215 3.6012959826217736 0 0 0
144 1 18.004964614830538 19.27344879415478 1.8719163506132586 0 0 0
286 1 19.864513492759 19.636395871891867 3.0482201549228183 0 0 0
167 1 19.670214857338618 21.442522080236415 5.353601917837627 0 -1 0
305 1 14.390766270835853 21.478859782271 6.941752201698813 0 -1 0
171 1 1.787104466016027 3.826621342649058 5.3735591743036455 0 0 0
152 1 3.1425861745092054 1.794179555826962 5.39726175341338 0 0 0
290 1 1.2054353740044894 1.5002559054989753 6.916684129991034 0 0 0
317 1 3.3470888894201076 3.470025112108614 6.7903606103802066 0 0 0
296 1 3.5219260912097785 1.388014880752946 8.463600454856632 0 0 0
315 1 1.5430809401606274 3.146468351404678 8.753826152364436 0 0 0
291 1 1.4865473548345485 0.08127719966939473 8.672466487211038 0 0 0
293 1 3.1834332569824606 -0.26886690936225643 6.783179979544046 0 0 0
156 1 7.06726585722332 1.2862642556099246 5.213842814537288 0 0 0
151 1 4.890585778475963 0.023306855648723868 5.387921202087916 0 0 0
175 1 4.998064924741199 3.6740888120459685 5.044476349419823 0 0 0
294 1 5.3857294390865125 1.8401840061527701 6.593340602684581 0 0 0
300 1 7.0874738499272425 1.5700941733023992 8.42604606988363 0 0 0
321 1 6.8255938712275945 3.7440059687038243 6.568671439596356 0 0 0
319 1 5.271520813901376 3.197445583047945 8.893543150901019 0 0 0
178 1 8.712593390606294 3.525767812665208 4.868878285258442 0 0 0
298 1 8.72296414799405 2.1117453115350604 6.651896201992345 0 0 0
304 1 10.446533844956459 1.8546006320948303 8.805287276455235 0 0 0
325 1 10.625210114821286 3.551280109208657 6.702052818543674 0 0 0
302 1 12.294166575140412 1.9166009498485832 7.293253833895399 0 0 0
327 1 12.429133363203242 3.636815263726332 9.040524781237885 0 0 0
323 1 8.610815459499937 3.251075242729734 8.739256547762523 0 0 0
301 1 10.409195685318121 -0.1246732061846991 7.042935224594705 0 0 0
102 1 4.7663358403292415 16.057930393318244 -0.1078110567482582 0 0 0
160 1 12.446816815438515 3.291919564316163 4.773872862903029 0 0 0
187 1 16.40187026235506 3.1138191801140027 4.858819852669285 0 0 0
164 1 13.901767981649234 1.3434243532544177 5.223193072029632 0 0 0
306 1 15.954814213314858 1.419886244817606 7.085928633844528 0 0 0
308 1 14.589836013066712 1.3900078029496088 8.958810534563643 0 0 0
331 1 16.107720816924463 3.2315168402427474 8.62813128111582 0 0 0
329 1 14.389977825594766 3.3498512615005427 6.812291893112966 0 0 0
191 1 19.65522758856037 3.42239268352435 5.108785327920381 0 0 0
292 1 21.336997018401608 1.6688105675299894 8.671099432143638 -1 0 0
313 1 21.525756423282555 3.3090380336356278 6.619916536177981 -1 0 0
311 1 19.9201818619759 -0.36220081099230106 8.752002514796029 0 0 0
148 1 21.310413933490445 1.3316178662023028 5.011272135750308 -1 0 0
166 1 18.052514820559487 1.3803946455626277 4.8140168742838245 0 0 0
312 1 17.757613494656315 1.4756428218535427 8.671806083304636 0 0 0
310 1 19.75159768820489 1.5062089795324665 6.83594534353681 0 0 0
335 1 19.573695496585938 3.3096656962005886 8.780832786606648 0 0 0
333 1 18.07846135339922 3.2169232863170607 6.866710668209379 0 0 0
168 1 16.272255792182232 21.434472574302387 5.449610795695396 0 -1 0
18 1 16.378582334733558 1.6801903869962382 0.03946960900951896 0 0 0
176 1 3.552860304051059 5.42078154580258 5.351203628220121 0 0 0
172 1 -0.2819629375157764 5.295311676246365 4.997477245199952 0 0 0
195 1 1.5316507449727272 6.848715284775696 5.665440222925152 0 0 0
314 1 1.1258062528117865 5.102121464938744 7.259528507442957 0 0 0
339 1 1.5530423750039666 6.91398203836183 8.884238424741852 0 0 0
320 1 3.271574379158924 5.244385235885278 8.708365523098422 0 0 0
341 1 3.426352399844158 7.076724165531988 7.081902752249123 0 0 0
337 1 -0.03403892029928224 7.010660759445117 7.27049487491997 0 0 0
425 1 14.197569982278745 17.934899823239032 7.178259964470289 0 0 0
299 1 8.867023654497727 -0.2019131325441089 8.926188015124097 0 0 0
199 1 5.473014794368401 7.079731733618743 5.140764793017301 0 0 0
180 1 7.176277345569448 5.532139123617118 5.171920314607546 0 0 0
318 1 5.329295221442847 5.4583098827180505 7.220154836129123 0 0 0
324 1 7.051774303535188 4.948769732020444 9.029643366699627 0 0 0
343 1 5.250109518506432 7.415560659485294 8.895923861101906 0 0 0
345 1 7.151739482224551 7.148207249505755 7.215024130558042 0 0 0
522 1 15.782948446771915 12.399857028285103 10.432916839653453 0 0 0
207 1 12.60211491805059 7.037530762072526 5.265168950152801 0 0 0
203 1 8.971160013718624 7.194264827588038 5.11585386449852 0 0 0
347 1 8.934087719389968 7.2548727340743575 9.072111939456109 0 0 0
322 1 8.833116258311842 5.226132209414335 6.556641802350158 0 0 0
328 1 10.631745777878916 5.3754677202541465 8.61794454747773 0 0 0
351 1 10.57876019841358 7.19397073882057 6.800374927778176 0 0 0
353 1 12.20879774214365 6.891195688305793 8.866843806068118 0 0 0
326 1 12.649106094231184 5.050521987664099 6.966663667892858 0 0 0
422 1 12.262240309724303 19.821634998026003 6.954492326611507 0 0 0
424 1 10.463919068039782 19.849564726122814 8.815487173146755 0 0 0
183 1 14.406571990474808 4.870879284575752 4.993554932631122 0 0 0
188 1 15.928291826451247 6.998817125896752 5.144881183997662 0 0 0
473 1 14.047812444775897 5.451075223840088 8.9202504293819 0 0 0
330 1 16.183306347105088 4.848054730804582 6.744361409578029 0 0 0
332 1 14.260427408347606 6.880220244466943 6.8381702908663655 0 0 0
355 1 16.131432834156875 6.422491238850827 9.025785404642134 0 0 0
2 1 1.5537282984894094 1.8156570891498616 -0.05033988433162123 0 0 0
316 1 -0.27587320440539664 4.839595163311389 9.231670714468935 0 0 0
438 1 5.400905379687031 1.4033498973981644 10.455745009465078 0 0 0
215 1 19.787620680462126 6.845574007942151 5.272457812007224 0 0 0
192 1 17.988571500643726 5.314357900355438 5.103344148529234 0 0 0
357 1 17.833024334854283 6.878626875316024 6.86833039682936 0 0 0
336 1 18.01553798270772 5.0242205075297495 8.14021626670063 0 0 0
334 1 19.87088807273785 4.879282696332334 6.868757386515382 0 0 0
359 1 19.735149118913373 6.9667520306376565 9.04718147803332 0 0 0
223 1 3.049584298123986 12.645743931802185 5.097867342804849 0 0 0
200 1 3.4287019882080694 8.653856262398488 5.428620420063236 0 0 0
196 1 21.521445052552224 8.283152475198634 5.05710240278645 -1 0 0
219 1 1.4948019213946087 10.874796771929777 5.195107684293719 0 0 0
338 1 1.5226218303641923 8.879338062968712 7.031784674773496 0 0 0
344 1 3.1649031001226353 9.1565418179735 8.856863593230015 0 0 0
363 1 1.1398290703585476 10.800212924609387 8.63617116595111 0 0 0
362 1 1.4564847712146805 12.83398547024252 7.263408003092245 0 0 0
365 1 3.2496312722705336 10.68219116834996 7.069826775361061 0 0 0
361 1 21.50356731095689 10.334684192489288 6.865783469156401 -1 0 0
368 1 3.3085388808758056 12.46600364546792 8.810748223952622 0 0 0
364 1 21.55063770373493 12.699823518867273 8.457112005748067 -1 0 0
418 1 8.861516864266433 20.09648525613261 6.537141592049693 0 0 0
228 1 5.279490735166294 10.914188238323401 5.372128330847266 0 0 0
246 1 7.310369694057072 12.530271316224104 5.594021815628577 0 0 0
348 1 7.264398304584852 8.943336602501848 9.069448306316396 0 0 0
342 1 5.230236591797798 8.839879786542575 6.8663229006246995 0 0 0
367 1 5.498045872826072 10.433506008520556 8.800035399230923 0 0 0
369 1 7.101247507582321 10.252509353899104 7.119496966310951 0 0 0
372 1 7.018369738450108 12.301668427728579 9.215222674987004 0 0 0
366 1 4.759870913182067 12.626395593854044 6.937950584577348 0 0 0
558 1 5.094899310407547 20.047732926109646 10.535755580489974 0 0 0
423 1 12.244002109091783 18.110372841284175 8.310190026060841 0 0 0
346 1 8.751808386367387 8.772455624461514 7.054795415252757 0 0 0
352 1 10.89340132854921 8.613308214258236 9.074713815463285 0 0 0
371 1 9.092884052671298 10.568648346861131 9.044319475983885 0 0 0
373 1 10.624703503132785 10.58368365394809 7.11577754242207 0 0 0
375 1 12.421854562575568 10.54054167006123 8.835290138043767 0 0 0
376 1 10.835126127727904 12.453835471636125 8.992559259290578 0 0 0
374 1 12.390229208616145 12.312842523790977 7.013277575096917 0 0 0
350 1 12.69404037771175 8.691505490832085 7.085378028708437 0 0 0
370 1 9.224455523253193 12.415069630177 7.047912932186783 0 0 0
547 1 17.809372850943195 14.312210289959504 10.194574247540112 0 0 0
421 1 10.055465161358786 17.842806869317613 7.163310533579483 0 0 0
458 1 1.6685789602723724 5.356573619805412 10.477481457801206 0 0 0
303 1 12.464380671713101 21.331074852452907 8.601654566235936 0 -1 0
211 1 16.551943171618127 10.35173748524298 5.3069561842316135 0 0 0
356 1 14.535048589777528 8.453908007964253 8.888582505447248 0 0 0
354 1 16.17946481462222 8.599061028277236 6.896922008276281 0 0 0
377 1 14.330590038905227 10.587092396625762 6.75430462984935 0 0 0
379 1 15.98707483361159 10.660558533514703 8.84748429343282 0 0 0
380 1 14.357813209483794 12.076132380530572 8.557090972250585 0 0 0
378 1 15.933745659153878 12.36252105364958 6.729594268487878 0 0 0
216 1 18.05935601774636 8.657742417843634 5.285148623836269 0 0 0
239 1 19.97024642206795 10.149410134423945 5.176780575469063 0 0 0
240 1 17.672184911125928 12.84140972190017 5.437108462515623 0 0 0
419 1 8.366418153996404 17.995044793285107 8.80934399212186 0 0 0
360 1 17.858110100255214 8.736374318719529 8.709426411575851 0 0 0
340 1 21.597537075265798 8.822282174479877 9.126298306389787 -1 0 0
358 1 19.50483561169542 8.607146038236863 7.161298850378641 0 0 0
381 1 17.690847716584354 10.485429102494772 7.0597235845284345 0 0 0
383 1 19.908295572617295 10.692625072711978 9.176281933312467 0 0 0
386 1 1.6536760976798197 16.273716438045817 6.983168656944463 0 0 0
387 1 1.8032311722144172 14.505902751070343 9.229273292881196 0 0 0
389 1 3.378159503580465 14.38187326984476 6.937660988237046 0 0 0
392 1 3.638696150004354 16.48251255349662 9.025091720124522 0 0 0
388 1 -0.2580515536673843 16.262852225763883 8.940171605034951 0 0 0
385 1 -0.30184268479128207 14.799434814884368 6.995331463885362 0 0 0
450 1 16.13311778151579 1.6185718096512502 10.349001610212035 0 0 0
280 1 10.803503063815334 19.078139088564868 5.156494428185679 0 0 0
252 1 6.823591663478072 15.932415544681898 5.1919595313480515 0 0 0
466 1 8.726355982753345 5.169784674475142 10.511118683425687 0 0 0
247 1 5.824821158360243 13.973412759619652 4.519804606275555 0 0 0
396 1 7.196902382401037 16.03295990308556 8.849223578737321 0 0 0
251 1 6.675815652924783 14.209709829609036 7.054704005631312 0 0 0
390 1 5.058973823044469 15.873250744089706 7.080310635555748 0 0 0
391 1 4.777057302278839 14.363877048961943 8.855842065927918 0 0 0
395 1 8.843729197472692 14.186637469383175 8.753067701635203 0 0 0
295 1 5.410483299017248 -0.14126729191271678 8.671679483421041 0 0 0
249 1 8.97195978721275 14.443444752444725 5.050842147062217 0 0 0
297 1 7.134130565277972 -0.285293424640247 6.972031563925577 0 0 0
394 1 8.459943122890254 16.03814271323457 6.827820812035746 0 0 0
400 1 10.40362275409762 16.169837162247255 8.87395971444593 0 0 0
397 1 10.460221493385301 14.5342053694002 7.002080825635475 0 0 0
399 1 12.362149272393474 14.212436468445057 8.908143391285549 0 0 0
398 1 12.29651237436863 16.016235813521767 7.136554248841125 0 0 0
125 1 3.3471975284255056 18.15654767083045 -0.3072526787385982 0 0 0
259 1 15.78098197647596 14.358651591787895 5.333071274796636 0 0 0
260 1 14.364168614233838 16.00365569487408 5.5426493745957774 0 0 0
404 1 14.295826058740355 16.225729700621407 9.017357374746242 0 0 0
402 1 15.785445291363335 16.349150391225045 7.156957692792741 0 0 0
401 1 14.171186819651664 14.194511106639414 7.141829679305134 0 0 0
403 1 15.8747453587922 14.387572395816564 9.059133063499946 0 0 0
415 1 5.638208158809584 17.829830929914632 9.0145322290959 0 0 0
417 1 6.437098851014683 18.00113652843538 6.425619849659262 0 0 0
384 1 17.682555556635005 12.369997172457841 9.099005930840827 0 0 0
382 1 19.326739527542827 11.90761583165695 6.829769436674889 0 0 0
264 1 17.903640379736785 16.01685004154053 5.745900398398072 0 0 0
408 1 17.87104392800501 16.152918737149783 8.72870430032189 0 0 0
407 1 19.610824227983265 14.121424419676412 8.20017078030219 0 0 0
405 1 17.34741968801475 14.137975694536252 7.2886499329095535 0 0 0
406 1 19.840539066333093 16.222466205961986 7.0322868535311756 0 0 0
414 1 5.340288406300578 20.208660863350467 7.310605012883619 0 0 0
149 1 3.5177371125986068 19.66036474231169 5.735024905376859 0 -1 0
411 1 1.4794612990793203 18.10126874206297 8.851114429065696 0 0 0
272 1 1.5640255457347958 20.13793944040903 7.762780069906947 0 0 0
413 1 3.635650075805988 18.066390026630106 7.143627914679576 0 0 0
267 1 1.5987320226007797 18.23950158065108 5.583792943376512 0 0 0
416 1 3.6786998648208407 19.913621819897976 8.770332422548547 0 0 0
276 1 7.126852317437291 20.34960764649557 4.53707276928451 0 0 0
420 1 7.2595262026830785 19.932681209369534 8.748142439066752 0 0 0
271 1 4.894236066254218 18.005472130875685 4.627230371773231 0 0 0
529 1 -0.2346220925721684 13.97390262506534 10.269135073172748 0 0 0
89 1 14.187110170815702 10.719969547948166 0.022636656715018022 0 0 0
137 1 14.350435800794063 17.67861030497414 -0.2883249642752919 0 0 0
441 1 6.863119753139219 21.4095197388949 10.590425241626827 0 -1 0
86 1 14.439007162998086 14.465981409977088 0.11596296533574868 0 0 0
14 1 12.55251894964068 1.5230900474620621 -0.1585138685921082 0 0 0
141 1 17.879135118524065 18.186313415041134 -0.14272369241902086 0 0 0
554 1 1.6894570726429312 19.878939445998686 10.473471344238378 0 0 0
105 1 7.1161601131569245 14.159544259248513 -0.17176714784242333 0 0 0
12 1 6.823269313060233 0.4264403466167015 0.12591289819227502 0 0 0
38 1 12.361267489613883 5.092182250287026 -0.3621762012148155 0 0 0
485 1 3.385239395974691 6.861752086991026 10.366642999111853 0 0 0
446 1 12.372235101186366 1.4502648530205293 10.314963694586591 0 0 0
538 1 8.667994824448517 16.3972067654409 10.625123957479527 0 0 0
69 1 18.02946249496395 7.000635533811327 -0.2502843692447536 0 0 0
462 1 5.267354649166977 5.353349691352874 10.481358434226781 0 0 0
545 1 14.073171106661903 14.323302634636239 10.621100646480306 0 0 0
482 1 1.6287581855010003 9.11652286724529 10.566377468194968 0 0 0
29 1 3.2621488792676483 3.541728760385161 -0.21651748943199248 0 0 0
461 1 3.4588769218870477 3.37429105803137 10.51508694720358 0 0 0
98 1 1.7007707998793213 15.982180695728548 -0.16191156384636898 0 0 0
134 1 12.624946583313822 19.586208016042125 -0.1292021145598854 0 0 0
122 1 1.4870830309291485 19.84143618946645 -0.13280955674984277 0 0 0
498 1 15.917513985454402 8.596379647517656 10.533722215769568 0 0 0
49 1 21.58290159339864 7.372186372298766 -0.18517718419305892 -1 0 0
118 1 19.52410231770231 16.088713083817186 -0.24938272427873098 0 0 0
13 1 10.717813646701769 21.555342203844152 -0.29208286900862174 0 -1 0
521 1 14.02721344029465 10.679602305422561 10.618027881515577 0 0 0
469 1 10.447974092962324 3.490847995274922 10.541006395285743 0 0 0
42 1 16.42520660918117 5.390337281421138 -0.07632306032505765 0 0 0
65 1 14.238243019289516 6.885539962269502 -0.2854644254545866 0 0 0
497 1 14.156552697349262 6.879136457643257 10.623251054935265 0 0 0
574 1 19.780288802918303 20.38203608602762 10.620306330621984 0 0 0
449 1 14.157548359493976 21.313925818814536 10.421487560191343 0 -1 0
454 1 19.672696795841915 1.3364712626429813 10.282425602769102 0 0 0
534 1 5.0750416989557126 15.692239364156382 10.56502292295837 0 0 0
525 1 17.968128051696645 10.467569330438987 10.565023374372158 0 0 0
73 1 21.602915614112675 10.398179280013563 0.0692214930570747 -1 0 0
537 1 7.179315573881001 14.182723949115823 10.46617492361329 0 0 0
53 1 3.2071140528319533 6.829002650150232 0.05245280238262312 0 0 0
94 1 19.515184264290074 12.650422508263686 -0.2722546127642964 0 0 0
81 1 7.219234984084808 10.72600558036817 -0.3651908141016804 0 0 0
542 1 12.611298573484655 15.949348623793089 10.618761943885039 0 0 0
74 1 1.4344469418381944 12.369015710251215 -0.3575186617451429 0 0 0
453 1 17.92646255633096 -0.2180766984359571 10.610918945286816 0 0 0
514 1 9.120512088906931 12.390023811920395 10.552529387355932 0 0 0