LAMMPS data file via write_data, version 29 Oct 2020, timestep = 300000

864 atoms
1 atom types

-0.35708791336059775 21.621087913361208 xlo xhi
-0.35708791336059775 21.621087913361208 ylo yhi
-0.35708791336059775 21.621087913361208 zlo zhi

Masses

1 58.933

Atoms # atomic

146 1 1.2798010473976644 1.4431756473417694 3.235255933753719 0 0 0
27 1 1.1971913520508763 3.385247881406346 1.731422702785459 0 0 0
8 1 2.8277271867425027 1.9858850795557537 1.3845943029781569 0 0 0
173 1 2.943605973837223 3.1620353275119513 3.4958413483293564 0 0 0
169 1 21.522322768062203 3.3434935297766337 3.2877625362178597 -1 0 0
4 1 21.50781291434386 1.570969851394525 1.4506936447515268 -1 0 0
145 1 21.610661724260126 21.507487036456812 3.123496118778178 -1 -1 0
3 1 1.6639060871346194 -0.2692292808639455 1.2133905505762168 0 0 0
33 1 7.790294920908909 3.603693679401287 0.0018525026332349426 0 0 0
150 1 4.92110017548898 1.4311416228543516 3.171483007168238 0 0 0
31 1 5.233879905350184 3.1170496520705413 1.609227024451922 0 0 0
6 1 6.829863907142615 1.430227349647943 1.665309148646096 0 0 0
177 1 6.918181568578372 3.2277079104855777 3.385303633689902 0 0 0
7 1 4.687330861387616 0.1135536345541095 1.3597220897931752 0 0 0
153 1 7.172474412746332 21.25400021595335 3.4245729397507882 0 -1 0
151 1 5.05550354482128 -0.31991311606650186 4.887907003133821 0 0 0
156 1 7.124046947255335 1.2371157389100471 4.777073651934081 0 0 0
35 1 8.777327158254568 3.099269235621763 1.9707601353022182 0 0 0
154 1 9.145761293365036 1.6604186105039513 3.624716359137881 0 0 0
16 1 10.805624751670456 1.5444941490292314 1.711248042653211 0 0 0
181 1 10.81728703370773 3.463424362809446 3.424117321938089 0 0 0
158 1 12.400114573435841 1.15546735335639 3.2582183426363085 0 0 0
39 1 12.35958883904842 3.4502024401660303 1.833653203257581 0 0 0
183 1 12.82383282785731 2.98404779075673 5.680053830847069 0 0 0
409 1 21.579389261196003 18.028380908117345 6.399090066763444 -1 0 0
15 1 11.962130388195904 21.549198237247218 1.4798290448059348 0 -1 0
179 1 8.110540676701447 3.4536967338532945 5.3900312648209185 0 0 0
160 1 10.697760464449377 1.4922520788981772 5.19417408891897 0 0 0
65 1 14.155979568250109 7.178145028493611 -0.16152154275375366 0 0 0
20 1 14.165519253334326 1.6594977194043365 1.7239064511418518 0 0 0
162 1 15.838958367399808 1.329453071983801 3.622253003549217 0 0 0
185 1 14.27381649348143 3.1063265969077136 3.76902887452529 0 0 0
43 1 16.09677152726858 3.814604898358912 1.641987166873012 0 0 0
19 1 15.688900488403998 21.33331990246343 0.550792253061296 0 -1 0
288 1 18.05533091858655 19.474784915799376 5.050568819753097 0 0 0
161 1 14.208684537157326 21.611313477785654 3.561296678290042 0 -1 0
163 1 16.237985864682692 21.490535310035156 5.073428517483256 0 -1 0
24 1 17.480214994535668 0.8202101248236671 2.1083379336067636 0 0 0
166 1 19.710552835612617 1.2776520247053609 2.9568343684403255 0 0 0
47 1 19.724296626353386 3.260997661149487 1.780904402559624 0 0 0
189 1 17.738155262283925 2.7027603497807906 3.256912828165317 0 0 0
165 1 17.753736550356543 20.56205134218609 3.09146608164945 0 -1 0
23 1 19.713667201499252 20.94992739442263 1.3123824857199837 0 -1 0
429 1 17.64018431183115 18.23061482201521 6.694977360471501 0 0 0
51 1 1.2832329137475729 7.291174694024306 1.6011931949788938 0 0 0
170 1 1.3982248315793002 5.337309026812005 3.200798005087593 0 0 0
197 1 3.2352827090321363 6.766642214417362 3.167044378601355 0 0 0
32 1 3.086996892430117 4.671166240833147 1.1632551085062037 0 0 0
193 1 -0.13800403507181258 7.154747700125394 3.2852664518299455 0 0 0
28 1 -0.31702359244684525 5.320040571730676 1.5272638471215556 0 0 0
93 1 17.83811657143855 10.428289401041669 -0.1928654034980622 0 0 0
36 1 6.747247622112659 5.069914110555506 1.5570469763884116 0 0 0
55 1 4.852543161200481 7.06514548216261 1.36027892828077 0 0 0
174 1 4.76796095280016 4.888332418681588 3.37604463858796 0 0 0
201 1 6.5423626651397795 6.77199837514708 3.4140307564649306 0 0 0
180 1 6.77423115985191 5.076110644248812 4.885251482332451 0 0 0
60 1 6.599616655655734 8.87120595426612 1.5388134917177676 0 0 0
430 1 20.02501680504022 19.895447024901557 6.876349071030187 0 0 0
178 1 8.750085258442857 5.354984973254884 3.1442608256603357 0 0 0
59 1 8.535379762870953 7.068609205961069 1.99221214468669 0 0 0
40 1 10.48758419094417 5.09542230396982 1.4196091882318833 0 0 0
205 1 10.55497865614002 6.834473419121055 3.5005623228494143 0 0 0
182 1 12.705805832586366 5.0933630350516 3.611978976945346 0 0 0
63 1 12.483390597409386 6.825168192795906 1.7341824202899199 0 0 0
184 1 10.24321930091328 5.0344678966628695 5.0626662408674985 0 0 0
431 1 20.18165955860074 17.720870478571683 8.34953074091701 0 0 0
44 1 14.476077022472452 5.363370217451388 1.9190033918306373 0 0 0
67 1 16.175127309274508 6.893101944637296 1.698760164981453 0 0 0
186 1 16.52713583840471 5.1158296399635965 3.892980055226273 0 0 0
209 1 14.365916997820321 7.053363958022692 3.68682769300442 0 0 0
210 1 16.079478894808826 8.907348201658706 3.286892196600282 0 0 0
432 1 18.20245425445614 19.83858680014441 8.529749266847425 0 0 0
211 1 16.055106785717747 7.234080062939477 5.359636661589324 0 0 0
172 1 21.222302199007707 5.250448523157546 4.903773769959366 -1 0 0
48 1 18.191361324834094 5.244769157002408 1.6356703042743361 0 0 0
213 1 17.968959043251544 7.01499523643062 3.8968266817321613 0 0 0
71 1 19.699002241428705 6.987310776673991 1.5829893206201258 0 0 0
190 1 19.511388384308646 4.685185954467859 3.7520219740893097 0 0 0
192 1 18.256226681775132 5.379346700736014 5.692294303842221 0 0 0
61 1 10.55815109431636 6.728087238486587 -0.18162272033980137 0 0 0
305 1 14.08772029324446 21.387929945378893 7.399475984818641 0 -1 0
194 1 1.3626878874143784 8.849682067098824 3.592317540328318 0 0 0
56 1 3.0981443889669045 8.951810037829343 1.4067015670619012 0 0 0
75 1 1.2319690654093738 10.625629868058516 1.3304152889333816 0 0 0
221 1 2.707094473464815 10.971876547766216 3.137469173017214 0 0 0
218 1 1.4774810451150875 12.698706106777582 2.540843346338662 0 0 0
80 1 3.7746469418299133 12.143689378366311 1.1939952738769406 0 0 0
52 1 21.543283974511716 8.851979354837344 1.5395821516800605 -1 0 0
224 1 3.4174424621622395 12.73210725187395 5.1831111103980225 0 0 0
219 1 1.6922904313563345 11.11744723806645 5.384860307701696 0 0 0
74 1 1.9264162418387043 12.70577399934847 -0.07517443341718677 0 0 0
198 1 4.825344794967423 8.655884559916638 3.281308035259757 0 0 0
79 1 4.858894955900283 10.35732993185105 1.5354802851824698 0 0 0
225 1 7.225368128925085 11.169018707427089 3.094151267583518 0 0 0
222 1 5.187016064155721 12.729422306644068 3.2208355331283838 0 0 0
84 1 7.036899222180601 12.514459863442065 1.1229816892486506 0 0 0
228 1 6.8205440609300165 12.62429915162676 5.1034663513842125 0 0 0
204 1 6.820130442844533 8.741941957287034 4.873613140063443 0 0 0
223 1 4.868700946972442 10.657340299212732 4.88664417178742 0 0 0
202 1 8.843832426011456 8.739498132684462 3.30639892066778 0 0 0
46 1 19.84195678479265 5.088259962006282 -0.07212658340871703 0 0 0
90 1 16.21663314180315 12.630273579968794 0.059158740988693725 0 0 0
64 1 10.566883574965027 8.743093448092756 1.813769824018462 0 0 0
226 1 8.751267362445038 12.780663205593127 3.256088296249601 0 0 0
83 1 8.532524857781711 10.443330957954899 1.1534119575875943 0 0 0
229 1 10.488144106587804 10.767213163659868 3.5001867480783644 0 0 0
88 1 10.113841976640984 12.107975764693846 1.3488745881387525 0 0 0
206 1 12.388371384951805 8.804329664452002 3.4359411084879574 0 0 0
87 1 11.963630643779968 10.474304117881982 1.412720682118518 0 0 0
230 1 12.299880230795505 12.494104769375262 3.4109179389807 0 0 0
232 1 10.41632433060505 12.598912614570336 5.373275671101245 0 0 0
126 1 5.111536103351162 20.08877040508985 -0.3157348026115275 0 0 0
569 1 13.901970673087984 17.83123879627192 10.540524552088849 0 0 0
231 1 12.13145025969246 10.603143642603223 5.277183089474643 0 0 0
208 1 10.418893030560932 9.035869392362079 5.189356737850862 0 0 0
68 1 14.465962410610937 8.531560842170073 1.6903279741426869 0 0 0
91 1 15.81458810963042 10.690963710583274 1.9064135486727438 0 0 0
233 1 13.894917205769826 10.867213644205274 3.354413325217842 0 0 0
234 1 15.972569332818875 12.640455299870858 3.155288599250254 0 0 0
92 1 13.738176979384214 12.29780724926343 1.3085743210811995 0 0 0
212 1 14.253033291148052 9.255311592870044 5.317025895048221 0 0 0
236 1 13.799941521083833 12.525008906186985 5.255846931325756 0 0 0
557 1 3.2779326215473326 18.27461088536872 10.333275251625777 0 0 0
214 1 19.834186898913728 8.94164366798635 3.36440236974556 0 0 0
76 1 21.276462363731692 12.638946548891271 1.3617536865921358 -1 0 0
220 1 -0.27591875801793275 12.27965452838263 4.849044016247896 0 0 0
217 1 -0.03474934225437709 10.635523589468413 3.269158008948443 0 0 0
72 1 17.864063522606333 8.759590649613548 1.753976486991296 0 0 0
237 1 17.914659226546792 10.916511765561683 3.2869720437703958 0 0 0
95 1 19.739082785951553 10.617302752807774 1.657491860686659 0 0 0
238 1 19.750575758986162 12.397517480641223 3.2483523431062724 0 0 0
96 1 18.093425295174793 12.322596299039056 1.399621334120596 0 0 0
240 1 17.69801393226751 12.22184286119689 5.48855978644557 0 0 0
239 1 19.653157706832918 10.544271428137622 5.107155786279391 0 0 0
425 1 14.209951477561146 17.642967393432624 6.69171432438904 0 0 0
426 1 15.647785173591519 19.599500912995094 6.663883059049974 0 0 0
34 1 8.519256248996184 5.547323825279968 -0.16877935505389016 0 0 0
99 1 1.3893535975432836 14.889447187543762 1.2796915550565289 0 0 0
242 1 1.4141182784657957 16.14179352991305 2.9396635590118505 0 0 0
245 1 3.2156246718821238 14.252489961759869 2.989939559015561 0 0 0
104 1 3.4708515080709152 16.570343033545562 1.4324867220093491 0 0 0
100 1 21.460254934411413 16.407494129394614 1.665027406159782 -1 0 0
243 1 1.617756353453693 14.056528610096564 4.606500060600861 0 0 0
103 1 5.035277969307324 14.214742141242773 1.3972737311980188 0 0 0
108 1 7.164458359642418 16.14306380223007 1.1165853264387953 0 0 0
246 1 5.363883571411132 16.398144424350644 3.058493972119891 0 0 0
249 1 7.122235955885324 14.34855233255801 2.826126692229915 0 0 0
252 1 6.801924482566388 16.051738162667284 5.0675543746209835 0 0 0
1 1 21.381167944346913 21.577177644701692 -0.256714122309092 -1 -1 0
284 1 13.798249676596615 19.78596624417837 5.0267429420209675 0 0 0
307 1 16.203168836021177 21.34665786602623 9.156591102455016 0 -1 0
250 1 9.219890688597882 15.801429076134273 3.16586692922484 0 0 0
107 1 8.75004104241619 14.08182391718992 1.1252243482273123 0 0 0
112 1 10.377985407400393 16.321423098225317 1.2183294661292248 0 0 0
253 1 10.591392229195193 14.014707948738788 2.9930926883269895 0 0 0
111 1 11.98058253325965 14.358183404756316 1.4754439217168531 0 0 0
254 1 12.107778138615917 15.88581762928262 3.118926726921632 0 0 0
251 1 8.618314725808073 14.494222875597226 5.060766132455255 0 0 0
115 1 16.17190346934676 14.558183542756176 1.415093621481839 0 0 0
116 1 14.02555111530254 15.750062646571184 1.2988914586544171 0 0 0
257 1 14.017708914031383 13.992829587764904 3.079567449632873 0 0 0
258 1 16.12658235159287 16.06260397415688 3.616649988255596 0 0 0
259 1 16.209202668394514 14.2235445069599 5.218274291758904 0 0 0
428 1 14.827872174788551 19.76006867638214 8.944577928661987 0 0 0
30 1 5.464683102302483 4.426450992861699 -0.2285037788882788 0 0 0
241 1 -0.26885048374488413 14.273962383095684 3.1037377403177286 0 0 0
427 1 16.286159439026456 17.767413806082736 8.679983440759415 0 0 0
120 1 17.79008644189401 16.42854643864952 1.3041142728824917 0 0 0
261 1 17.697530244379564 14.337306364871418 3.2864035958505693 0 0 0
119 1 19.758018327255517 14.42684899657327 1.518870012333741 0 0 0
262 1 19.65360793317121 15.973698190317947 3.095391234566424 0 0 0
263 1 19.907938778032868 13.97019104460171 4.654645562093889 0 0 0
264 1 17.970587856113855 16.76573633596258 4.898505850766411 0 0 0
149 1 3.0735124594432413 -0.07460816414138444 3.1260965493691075 0 0 0
269 1 3.323975649652699 17.942553867888893 3.1181175452974452 0 0 0
123 1 1.3993942608005894 17.87146956278285 1.0348384827529744 0 0 0
266 1 1.805632573620974 19.742188888166964 3.5008163721214722 0 0 0
128 1 3.1641943832473234 19.6990011164941 1.3409028325056525 0 0 0
124 1 -0.27737116979874643 19.526877302304857 0.9442633583917319 0 0 0
265 1 0.01864165343858326 18.287251320067224 3.0181448352609253 0 0 0
272 1 3.622550820509712 19.54297090685249 4.795083428969962 0 0 0
422 1 12.030488052216807 19.833349215833888 6.888399335305802 0 0 0
423 1 12.559346763991126 18.224198595524996 8.43647191325573 0 0 0
273 1 7.320835649929373 17.798323872081024 3.218692981391469 0 0 0
127 1 5.508446134558158 17.9597435743937 1.2831852737269116 0 0 0
132 1 6.945200433881375 19.812901230168002 1.4899480722043972 0 0 0
270 1 5.052298393425417 19.943629521504565 2.8702092689228733 0 0 0
276 1 6.929340977617057 19.751418720093454 5.0475768214994625 0 0 0
271 1 5.59616418325265 17.908386318652497 5.1623938236262275 0 0 0
275 1 8.529161331355954 17.57657103873298 5.190001840116421 0 0 0
421 1 10.206717946921383 17.471394592929766 7.066224856646766 0 0 0
157 1 10.506339978280966 -0.286875600723128 3.7372661513207515 0 0 0
17 1 13.628967916197926 0.25164572733162993 -0.1677073189823193 0 0 0
424 1 11.018878904340049 19.99026322055978 9.09315678409067 0 0 0
11 1 8.643677371087456 0.1816582622142101 1.9284621298681914 0 0 0
159 1 12.599373649222745 21.603465140386476 5.543723745156991 0 -1 0
274 1 8.995971431673595 19.96017464792747 3.366820562622145 0 0 0
131 1 8.692185654248883 17.9444894601982 1.4504818385066833 0 0 0
277 1 10.506992602180663 17.84569965640758 3.5225518580728927 0 0 0
136 1 10.350032637919023 19.768693786649415 1.7907193180947716 0 0 0
135 1 12.092576933632168 18.06156772768468 1.7057416073960145 0 0 0
278 1 11.894523851966103 19.837696606480748 3.6252378865305848 0 0 0
280 1 10.405727756197102 19.600930046051737 5.317376626364864 0 0 0
279 1 12.420128019529999 17.785137604393977 4.937721301715788 0 0 0
419 1 8.931932356152254 17.832158881996968 8.927795073744004 0 0 0
283 1 15.816984997706335 18.1461815807224 4.7529719539366875 0 0 0
139 1 15.815688660600745 17.55941529720077 1.3253078705332544 0 0 0
140 1 13.693893146180448 19.75788736494799 1.5398739036956097 0 0 0
281 1 13.999284758973221 17.649261058270135 2.956519250697477 0 0 0
282 1 15.538268163942925 19.81185788176376 3.051377652310338 0 0 0
38 1 12.52844096183896 5.293189543269533 0.048854346537262394 0 0 0
287 1 19.891745745212706 17.958893002369592 4.9142090199669966 0 0 0
301 1 10.589253762035256 -0.2572784284946146 7.1211264883456105 0 0 0
86 1 12.006277242828576 12.508189651967498 -0.27323504285573724 0 0 0
285 1 17.95529640814036 18.347713303818953 2.94382735668372 0 0 0
143 1 19.540608567617817 18.162022356504213 1.1696158790555267 0 0 0
144 1 17.420454416840155 19.30943406271137 0.913463543968364 0 0 0
286 1 19.995565086186403 19.54607109220435 3.343007325260269 0 0 0
303 1 12.382416261562602 0.18227349516312874 9.157245550301386 0 0 0
148 1 21.20166879809652 1.2060648850031583 4.673532950497714 -1 0 0
171 1 1.3582516683618233 3.2475055796854737 5.022971073557788 0 0 0
155 1 8.54731796857832 21.3063829929272 5.650833794711103 0 -1 0
147 1 1.2763323523209942 21.56920003903211 4.867466420500269 0 -1 0
152 1 3.3478665595942476 1.2963333315473506 5.01899054511639 0 0 0
290 1 1.8137520362272705 1.343227993605798 6.617146688374989 0 0 0
317 1 3.606464095182294 2.9606311904111586 6.902634186627478 0 0 0
315 1 1.7148872800699442 3.1517959342989856 8.486387331704453 0 0 0
296 1 3.214190528231742 1.5052702510009415 8.681121577825218 0 0 0
291 1 1.9099906166636957 -0.3421585111497308 8.638401213233733 0 0 0
89 1 13.850153732940965 10.584601215107568 -0.07299753673299797 0 0 0
313 1 21.53966727505382 2.8097298522149057 6.710207432760907 -1 0 0
573 1 17.621608016190713 17.836998958840212 10.376958085684073 0 0 0
415 1 5.369571553888555 18.4246903266483 8.578819246246606 0 0 0
175 1 4.951942549885461 2.8758266172265268 4.994461862452422 0 0 0
294 1 5.385673969044972 1.264187991618952 6.484621805907895 0 0 0
300 1 7.01230035759285 1.5621754938724413 8.673159634022792 0 0 0
319 1 4.952769574339941 3.9407179166143695 8.572139402606899 0 0 0
321 1 6.715027145452031 3.527393464832875 7.180305845839288 0 0 0
298 1 8.793556866666009 1.4370726910445808 7.24513291098447 0 0 0
418 1 8.981492782310905 19.608711717344093 7.495027536817577 0 0 0
299 1 9.024755261982236 21.589471630899244 8.944209905956889 0 -1 0
323 1 8.56565865232559 3.225000419957397 8.843416652629799 0 0 0
304 1 10.154432793076186 1.8045567851546762 9.25350145571533 0 0 0
325 1 10.772432166415326 3.22799180206046 6.96969653879137 0 0 0
327 1 12.336655657359765 3.3713201269922273 8.931998261881033 0 0 0
302 1 12.535135733168772 1.200172679724694 7.171744530439434 0 0 0
164 1 14.45976144482401 1.0884416721109231 5.775146172645655 0 0 0
187 1 16.260774895058926 3.130405758581277 5.392008618849691 0 0 0
306 1 16.615096248751698 1.091363921849062 7.174478052685819 0 0 0
308 1 14.718393606882689 1.277807218294192 8.673692328557873 0 0 0
329 1 14.50571577085046 3.2254407516063552 7.547494824422197 0 0 0
331 1 16.711835780125096 3.494040179573423 8.856861458411256 0 0 0
295 1 5.190835545275882 -0.10234514544360168 8.460366835046432 0 0 0
191 1 19.280351400307175 2.9981806008785097 5.2256620123184865 0 0 0
311 1 19.950506177581648 21.268047482612456 9.792169347139016 0 -1 0
309 1 18.037272246246086 21.324000969743015 6.42514539345277 0 -1 0
167 1 19.661671873586553 21.144050449925338 4.943035366846331 0 -1 0
414 1 4.927745117859685 19.851723569496066 6.676838425336351 0 0 0
50 1 1.1993945601828322 8.768484909128171 -0.34253803291481355 0 0 0
168 1 17.97291648763085 0.9772286481604604 4.7581195704635615 0 0 0
292 1 -0.12307414456685101 1.289328721639785 8.534310049797652 0 0 0
312 1 17.945552705015437 1.4809742958038672 9.022299576255348 0 0 0
310 1 19.42233507735963 1.1905576187309008 7.179295618787148 0 0 0
335 1 20.111333820216707 3.3719535129133673 8.51184223587634 0 0 0
333 1 18.172184300910608 3.4408486766313877 7.248678389309754 0 0 0
289 1 0.11882050086526058 21.44741935369791 7.1159275257454 0 -1 0
195 1 1.6530502225397279 7.073244253535293 5.3771895916529235 0 0 0
176 1 2.951153988909093 4.901161439898005 5.142451341632263 0 0 0
314 1 1.4620431134718002 4.768032192162824 6.755045260739067 0 0 0
339 1 1.4082616628568903 6.87563948790075 8.428722555948054 0 0 0
341 1 3.1904132379467693 7.352031952157176 6.86648684803722 0 0 0
320 1 3.2067187522857443 5.49642905935373 8.527771023847823 0 0 0
316 1 21.54694187982896 5.152128864934383 8.629441060409787 -1 0 0
337 1 -0.34203549831982727 7.226199325712016 7.136625816766667 0 0 0
199 1 5.021354768734696 7.181066968029188 5.243400327024874 0 0 0
318 1 5.102660264416851 5.434602110135318 6.682115085545808 0 0 0
324 1 6.6954782813126 5.366798719195703 9.145399574405722 0 0 0
343 1 4.917856808926951 7.116391741329667 8.562220708092637 0 0 0
345 1 6.963939069220603 7.043613118299195 6.928505381095236 0 0 0
420 1 7.089971612408891 20.00667129696335 9.044761677575357 0 0 0
203 1 8.494531060717067 6.995830162349015 5.4227531709177414 0 0 0
207 1 12.616623282925703 7.095343890211343 5.508811808278669 0 0 0
347 1 8.267000124950343 6.970402462578149 8.903940230331067 0 0 0
322 1 8.929054767198256 4.857072709758197 7.082419374959871 0 0 0
328 1 10.473026378624875 5.243042735241863 8.772009723302062 0 0 0
349 1 10.33517911796634 6.834797166527733 6.996309642240225 0 0 0
326 1 12.319253940615436 4.9629039990609005 7.027677637620057 0 0 0
351 1 12.438037125504072 6.774143529401447 8.908766466991697 0 0 0
417 1 7.1516199382873396 18.4004536681362 6.917313070889038 0 0 0
297 1 7.030972657324284 21.203476989109284 7.221168921146882 0 -1 0
188 1 14.230342786890832 5.247742598460379 5.495495506233274 0 0 0
330 1 16.298432539896396 5.480344928038648 6.827294722278644 0 0 0
332 1 14.646675071455336 5.492223548828094 8.937786284292274 0 0 0
353 1 14.079292026346845 7.052627607568638 7.32129648462926 0 0 0
355 1 16.278592813517644 7.2261253216798 9.12314794028547 0 0 0
215 1 19.736805766101654 7.430692766258722 5.46837603513143 0 0 0
357 1 17.95737329688533 7.108867193020645 7.3608396287888676 0 0 0
336 1 18.550820894267172 5.182525841357724 8.981338476508009 0 0 0
334 1 20.098084828865716 4.846775544020584 6.838709053771136 0 0 0
359 1 19.886161673404985 7.242897041208839 8.816675806173059 0 0 0
62 1 12.192383702881168 8.640815178855247 -0.21373190950744045 0 0 0
200 1 3.2260745464345715 8.879777642798828 5.216004524613304 0 0 0
344 1 3.0723654973148227 8.630434818364467 8.7863503360123 0 0 0
338 1 1.4754930585727115 8.993464401271293 6.832801460706979 0 0 0
363 1 1.4774197932811763 11.260416739369782 8.970457835995033 0 0 0
365 1 3.1658625528189073 11.046721995004322 7.064464181478881 0 0 0
362 1 1.5793428867208124 13.038947299072941 7.026406584879109 0 0 0
368 1 3.417197415256967 12.70010667002927 9.211199585515722 0 0 0
340 1 0.01157898674094332 9.101287717476154 8.756428877185176 0 0 0
196 1 21.479923796577403 8.88906321518969 5.270443237952242 -1 0 0
364 1 21.477116314127493 12.558113531040416 8.977149875724814 -1 0 0
361 1 -0.28538440342757454 10.914273187987785 7.159743564527091 0 0 0
413 1 3.315102134787944 17.792363320502304 6.784674372770172 0 0 0
18 1 15.942987923256506 1.931006901073773 -0.18693746196406966 0 0 0
66 1 15.802884853356588 9.06903388095759 0.04692762656360566 0 0 0
465 1 6.504462369482422 3.2422987155039102 10.244115818319445 0 0 0
342 1 5.24735174955068 9.179913252983553 6.747607224129989 0 0 0
348 1 6.659642758113348 8.986104430636468 8.631476257334871 0 0 0
367 1 5.044786821155562 10.92780949823206 8.637840428186749 0 0 0
369 1 6.835117016484338 11.059161745989313 6.567691999063745 0 0 0
366 1 4.926874556107258 12.703383259576356 7.070416325807665 0 0 0
372 1 7.161038599135783 12.534046412600794 8.765588452185622 0 0 0
370 1 8.722704524154176 12.791653285398976 7.204811060178979 0 0 0
410 1 1.6187575012827324 19.864730384046545 6.657377230130391 0 0 0
227 1 8.835229314245945 10.581889207141646 5.4368680349859435 0 0 0
371 1 8.464980660478046 10.723948950102523 8.681920694603402 0 0 0
346 1 8.770766697530613 8.872328668978067 6.921084637255082 0 0 0
352 1 10.172065605475598 8.828212079073689 8.84644312912009 0 0 0
373 1 10.52142300407816 10.77179904789411 7.029211436717114 0 0 0
376 1 10.34266564573883 12.50699817738723 8.947047235320579 0 0 0
375 1 11.953446960920932 10.390754910779215 8.970975559604698 0 0 0
350 1 12.36262809275419 9.069234383879833 6.978953376982653 0 0 0
416 1 3.2892494331675914 19.672707457366606 8.441787617026897 0 0 0
411 1 1.0827816614183758 17.791682724917028 8.476383160322499 0 0 0
235 1 15.935855430768125 10.79466157679279 4.930031607226781 0 0 0
268 1 -0.14201773711421878 19.86746804892358 4.979756049508282 0 0 0
374 1 12.572658875025352 12.467372950179909 7.210174276725943 0 0 0
354 1 15.719155760461298 8.917758699165644 7.148321339444278 0 0 0
356 1 14.56621874338197 8.979795136637351 9.227402180421864 0 0 0
377 1 13.849608812694367 10.6423138362922 7.688214884005557 0 0 0
379 1 16.132668028777815 10.79792902093222 9.140551785300753 0 0 0
380 1 14.480529301495462 12.872096596086887 8.88877106620371 0 0 0
378 1 15.806184125341485 12.540943841659724 6.983087295588264 0 0 0
216 1 17.798938818093053 8.951523416873602 5.463057024349542 0 0 0
358 1 20.03086807907023 9.02875769938882 7.081307451760261 0 0 0
360 1 17.623428636076408 9.117763047567426 9.033529735407829 0 0 0
381 1 17.473144041104604 10.526208745116145 6.868253516825954 0 0 0
383 1 19.24604508706251 11.055500295032429 8.836841366893644 0 0 0
382 1 19.812517313038615 12.071584715268314 6.832612827070701 0 0 0
384 1 18.29080660573177 12.986688788873058 8.76854671352216 0 0 0
70 1 19.808607305131588 9.235179516519638 0.08920355110716682 0 0 0
45 1 18.00115982717894 3.208853206268888 0.08912345644702119 0 0 0
248 1 3.52057060395774 16.035266560233683 4.708558869733055 0 0 0
386 1 1.204694909719248 15.951024001758679 6.5244464308614845 0 0 0
387 1 1.8122011101444873 14.6053452019281 8.9621351624918 0 0 0
392 1 3.375012458821539 16.31798426903705 8.835042697416819 0 0 0
389 1 3.4177972459926003 14.553408409487645 7.131871715118493 0 0 0
385 1 21.359231445434986 13.81538836505525 6.598970158600705 -1 0 0
388 1 -0.1275746527200799 16.008114657305175 8.273206265099244 0 0 0
267 1 1.483358605073647 17.85134148064954 4.935246201003984 0 0 0
554 1 1.5195439953404906 20.088426175144964 10.405520687982788 0 0 0
247 1 5.171850309875891 14.356310513320395 5.101325448320356 0 0 0
396 1 7.0189260525250825 16.501261161107408 8.921239895491544 0 0 0
393 1 6.861403388849601 14.30185265427479 6.93256209708037 0 0 0
390 1 5.541371930292202 16.611354050726597 7.0005260496568065 0 0 0
391 1 5.060066872111099 14.553020148712841 9.100321995702215 0 0 0
256 1 10.782619738453224 16.241272547064412 5.0512467058782065 0 0 0
394 1 8.369361109355305 16.041976854382103 6.847785112732197 0 0 0
395 1 8.855012411545044 14.693823877797495 9.134126301588593 0 0 0
400 1 10.652960279051907 16.54230174912899 8.92790115572649 0 0 0
397 1 10.225496359550766 14.700373856169245 7.178642780119333 0 0 0
399 1 12.107760222848958 14.54634251246283 8.525001851737636 0 0 0
398 1 12.448679176241612 15.980566537341431 6.869143225411937 0 0 0
255 1 12.163828799318075 14.255836493976581 5.1962257730395365 0 0 0
412 1 0.3009609679276094 19.93968633264465 8.660655775476041 0 0 0
293 1 3.4471793634108105 -0.26290231880122145 6.869131065384717 0 0 0
260 1 14.154035055241891 15.839566216207011 4.602424148964247 0 0 0
401 1 14.282089889992514 14.427340990200145 6.956343254801512 0 0 0
404 1 14.612583315990342 16.104997841623092 8.538700517260047 0 0 0
402 1 16.171282612584108 16.478702510280456 6.546253894072235 0 0 0
403 1 16.29288059161244 14.44124897105454 8.231226535645359 0 0 0
137 1 13.795937703588548 17.976151230440944 -0.03767206311474641 0 0 0
244 1 -0.23639852485212742 16.40399057106835 4.85186007604943 0 0 0
405 1 18.09641427983986 14.522235885127852 6.648632426892011 0 0 0
408 1 18.285515290224147 16.351029148122976 8.09385729363125 0 0 0
406 1 19.976016505812797 16.030357202222714 6.625254334737687 0 0 0
407 1 19.861479041158585 14.49134606999463 8.804092306396939 0 0 0
537 1 6.775893639372564 14.647757042837103 10.48290124196024 0 0 0
37 1 10.220121806374836 3.3167141087035095 0.031024711919139136 0 0 0
12 1 7.26350455587773 21.6208353305287 -0.3471405189460973 0 -1 0
53 1 3.057999571129743 6.6448567654224915 -0.02632768135404867 0 0 0
57 1 6.757078452013862 7.22517461012338 -0.13256896767501725 0 0 0
534 1 5.111637091809789 16.716338748590022 10.308408157240038 0 0 0
501 1 18.44513227201929 6.892377882085303 10.58277977629526 0 0 0
58 1 8.537701505095479 8.46780563810723 -0.32345589166833394 0 0 0
529 1 -0.22609766428965797 14.462194386407658 10.502232326588622 0 0 0
481 1 0.0857690013703718 7.021798416850771 10.43490164408869 0 0 0
433 1 0.03649358710142886 0.1739804952859767 10.399719175014667 0 0 0
546 1 15.594634668232963 15.851646781718205 10.342567363191986 0 0 0
434 1 1.7135050646438628 1.4445994082320668 10.599662744613656 0 0 0
513 1 6.971411386756425 10.55747285541362 10.579255101741614 0 0 0
505 1 -0.26040611514555567 10.76420527618751 10.435837070679147 0 0 0
493 1 9.902244261835893 7.24362917384916 10.404197966908978 0 0 0
458 1 1.8326920722547104 5.03938101166875 10.454800312399499 0 0 0
489 1 6.545912249158365 7.238839289267742 10.586883499495007 0 0 0
553 1 -0.35179543542451114 17.73096038996437 10.406034253713857 0 0 0
41 1 14.204576077169977 3.6019748768245683 -0.15825470384881565 0 0 0
13 1 10.350775576671328 -0.15130031685492304 -0.1269396050245468 0 0 0
438 1 4.8015023193472 1.3089119246684757 10.585742500405766 0 0 0
461 1 3.525101444918765 3.2946357346368975 10.423724751012864 0 0 0
486 1 5.094977936689662 9.060969323886583 10.326645979157565 0 0 0
473 1 14.655398702498132 3.1214906962558766 10.510327694752176 0 0 0
518 1 12.204003577580904 12.55933230485394 10.251047074528744 0 0 0
574 1 19.939060855721376 19.098940755673066 10.571291756743657 0 0 0
130 1 8.75474093444835 20.16492263864659 -0.05177991877372945 0 0 0
457 1 -0.25649752854083996 3.27687697503123 10.318756743140316 0 0 0
541 1 10.937134266831281 14.373018087297611 10.46533472041718 0 0 0
509 1 3.3828068112528955 10.699810652194667 10.419926316406917 0 0 0
521 1 14.165583018467345 10.772387829007421 10.426819612445007 0 0 0
449 1 14.43522955616259 21.571831624081252 10.524048503661101 0 -1 0
514 1 8.885315741319003 12.689556529081173 10.574265715216177 0 0 0
14 1 12.355869203343305 2.2219281308981675 -0.16626221881548373 0 0 0
565 1 11.114096074311092 18.278174770257287 10.627210379482436 0 0 0
561 1 7.235505439167733 18.272240347719606 10.614703641884256 0 0 0
466 1 8.406034089674888 4.805640832234599 10.233293577929269 0 0 0
510 1 5.215611723667967 12.494662468267778 10.605461468874644 0 0 0
526 1 19.883636258374842 12.61870376053169 10.60616429108048 0 0 0
530 1 1.7622922453462277 16.240222771592098 10.619920976438634 0 0 0
49 1 21.23099223644882 7.1456096565828515 -0.2002766967203229 -1 0 0
54 1 4.888827675450917 8.827272060160483 -0.3411298224910624 0 0 0
549 1 17.77311522775525 14.741416699262215 10.418689107828932 0 0 0
77 1 3.2763494699352833 10.62654197323778 -0.3343926758329978 0 0 0
102 1 5.256337224560142 16.00392681144484 -0.3336121668595773 0 0 0
550 1 19.73918031783803 16.239684457720788 10.150027870712677 0 0 0
26 1 1.1147076458509912 5.069336526208952 -0.31632125526197896 0 0 0
578 1 1.617083025305112 1.32963033813615 14.30432316980644 0 0 0
459 1 1.8616141183123172 3.0693574533898316 12.115573887192468 0 0 0
440 1 3.3765443671591466 1.1078713143699805 12.730519751095448 0 0 0
605 1 3.263469962309999 3.288206194392945 14.392095650523856 0 0 0
603 1 1.3189719209554593 2.816644673237761 16.159678063988235 0 0 0