LAMMPS data file via write_data, version 29 Oct 2020, timestep = 300000

864 atoms
1 atom types

-0.3103339342306022 21.5743339342311 xlo xhi
-0.3103339342306022 21.5743339342311 ylo yhi
-0.3103339342306022 21.5743339342311 zlo zhi

Masses

1 58.933

Atoms # atomic

146 1 1.5982430689484441 1.1447347242198607 3.2749821485051585 0 0 0
173 1 3.3233418729251953 3.5286789140029438 3.316792431587068 0 0 0
8 1 3.2300375076599046 1.4956299568365368 1.820429912991175 0 0 0
27 1 1.3652547734115559 3.41433257131797 1.5615336168071448 0 0 0
169 1 21.320551792793005 3.460265995491062 3.2224287070810833 -1 0 0
171 1 1.335873161650246 3.153529471900599 5.251481720605923 0 0 0
4 1 -0.030659107235265493 1.2909205562091377 1.5974148080888815 0 0 0
152 1 3.412689000582593 2.210670494231204 5.282812469133264 0 0 0
12 1 7.237286997512765 1.52844482824526 1.48298308952541 0 0 0
31 1 4.9170865155613255 3.4214578850186825 1.2071494803845493 0 0 0
150 1 5.294865183556314 1.7500092226147617 3.0041129541763354 0 0 0
177 1 7.197252734329202 3.4332531068984427 3.584822138482848 0 0 0
153 1 6.597378610416935 -0.20329927665124742 3.117466273352881 0 0 0
45 1 17.77116766881948 3.193232406751999 -0.25754595331623054 0 0 0
409 1 -0.15611089756694582 17.98871463932344 7.5071754645509206 0 0 0
175 1 5.411659363220144 3.641847161815227 5.078256097643476 0 0 0
311 1 19.763843787924117 -0.11573586317271228 8.870989273171421 0 0 0
154 1 8.779219590735984 1.187646534872454 3.407666492687307 0 0 0
35 1 8.951364649798421 3.3008747528512794 1.7094031040958648 0 0 0
16 1 10.754794071620143 1.3259787381407897 1.4671613652475608 0 0 0
181 1 11.242456837272767 3.0742411654007635 3.501208754077883 0 0 0
39 1 12.660908133172962 3.487472146993761 1.2406048269303758 0 0 0
158 1 12.907373681121088 1.537307836272587 3.2292613617113175 0 0 0
309 1 17.752612989153395 -0.10681173985987566 6.986467878532384 0 0 0
11 1 8.843721099818161 21.570665180742196 1.434561006461653 0 -1 0
183 1 12.85916379788007 2.928990835400561 5.326410841690908 0 0 0
20 1 14.340526486900082 1.6241387430750722 1.452481340334504 0 0 0
162 1 15.968842872871438 1.3807581293008662 3.259666419555819 0 0 0
185 1 14.50052881021912 3.40175658343976 3.323419711069416 0 0 0
43 1 16.097705892656787 3.1947521144806674 1.515127121272808 0 0 0
24 1 18.066356434496736 1.4773698866556642 1.3917381916007507 0 0 0
47 1 20.012524272446026 2.9393755709401366 1.3372242952730982 0 0 0
166 1 19.794078516405612 1.4324704173084304 3.2732988904256066 0 0 0
189 1 17.683801015142762 3.207779501938819 3.1891480434363677 0 0 0
165 1 17.752516133688196 21.166617471214593 3.58239757139334 0 -1 0
191 1 19.47434395445663 3.0484598566347194 5.18151357207866 0 0 0
33 1 7.141993798273034 2.8228701852315754 -0.23332498314086725 0 0 0
432 1 18.07045381585297 19.871672466548056 9.147165801829152 0 0 0
485 1 3.1430923704990503 7.146713381696012 10.347658318292158 0 0 0
32 1 3.283895285116733 5.27344160452287 1.5150979793874908 0 0 0
51 1 1.0802465800844787 6.945189447530085 1.6002135983248167 0 0 0
170 1 1.2497123977839402 5.079969782920543 3.3359080933296807 0 0 0
197 1 3.4288207921312743 7.119039402472406 3.2788474877811606 0 0 0
193 1 21.527187727042502 7.049331652229016 3.49220337271908 -1 0 0
56 1 3.0593483728952737 8.870672270570049 1.7708452659384442 0 0 0
172 1 21.368461322947443 5.030188170113565 5.11512925549174 -1 0 0
429 1 18.17287888947951 17.805671426962135 7.162385216404501 0 0 0
36 1 6.844765624836243 5.0212128947894215 1.3734955323839102 0 0 0
55 1 5.204726103482719 7.178965317141098 1.192251480413904 0 0 0
174 1 5.3824582313461615 4.935744420581157 3.181955111709589 0 0 0
201 1 6.9237927641355625 6.747437543945969 3.038621725377343 0 0 0
430 1 19.657795357715134 19.96617726229939 7.330794835994989 0 0 0
180 1 7.156284151408864 5.276732317927935 5.132337855353664 0 0 0
553 1 -0.22361645970365263 18.16232320589932 10.453056204017873 0 0 0
178 1 8.855899763059066 5.292999824371962 3.272584473233084 0 0 0
59 1 8.966071686889972 6.733975156717988 1.5836456033327335 0 0 0
40 1 10.869485768945875 5.086573454170835 1.9712643075463125 0 0 0
205 1 10.502229508723943 6.909455047797662 3.2391699463940977 0 0 0
63 1 12.389738023419438 6.818001076180214 1.472793267227328 0 0 0
182 1 12.67620419714872 5.134496235210754 3.546378847926414 0 0 0
184 1 10.940774059973528 4.687040537294003 5.008325055003595 0 0 0
207 1 12.521429603157678 7.000853412114438 4.922248078335591 0 0 0
203 1 9.159034943249523 7.116057701825856 5.127373803122836 0 0 0
44 1 14.592621090666798 4.965329371695259 1.5194736468044618 0 0 0
67 1 15.988604805306739 6.953783862621163 1.4258413887143777 0 0 0
186 1 15.933739486795197 5.347789484933578 3.618930735980384 0 0 0
209 1 14.221529037963933 6.885814958834255 3.073499913044727 0 0 0
9 1 7.139799189468654 0.04535911647501312 -0.0897910161889737 0 0 0
188 1 14.329233136366298 4.909903124367159 5.500981030122255 0 0 0
211 1 16.187213750526933 6.89893785598455 5.635302748935272 0 0 0
113 1 14.286250647935638 14.49743176790343 -0.12512108148638537 0 0 0
28 1 21.26096329827905 5.041869094137837 1.5531146575182575 -1 0 0
213 1 17.903615449326715 6.518424177914359 3.622733698346429 0 0 0
48 1 17.99232374181756 4.8375384250045 1.6607021340261727 0 0 0
71 1 19.263365365713717 6.991819337793001 1.5397225757256632 0 0 0
190 1 19.66923627240874 5.094205982285153 3.524721732721812 0 0 0
215 1 19.60221088660216 6.933232530655324 5.168986267602939 0 0 0
192 1 17.892987092673188 4.923168279578045 5.225309921541091 0 0 0
431 1 19.750814451991943 17.972787769256648 8.751176704653783 0 0 0
194 1 1.5358983080436566 8.830178842398317 3.1518227043110882 0 0 0
75 1 1.6171319218096158 10.627867329317636 1.4193132453515866 0 0 0
221 1 3.107547916350947 10.511819632554099 3.2238412957378193 0 0 0
218 1 1.728962505203048 12.379811597071159 3.199584881013237 0 0 0
80 1 3.1044980038319743 12.578364485936689 1.3221776682329012 0 0 0
217 1 -0.29752420340248814 10.558509909118808 3.250169768622632 0 0 0
219 1 1.4460119555369297 10.435145685904972 5.219016940084856 0 0 0
196 1 21.528633390211713 8.870273268871617 4.965547989447486 -1 0 0
200 1 3.674212116611466 8.78318756813648 5.151502625074169 0 0 0
74 1 1.1837343384597607 12.880432294976293 -0.09960601878921804 0 0 0
60 1 7.2343363188967915 8.648067022749505 1.3496101708361692 0 0 0
198 1 5.24306882311426 8.696004943338748 3.0531260650007868 0 0 0
79 1 5.244041338792053 10.510062041187354 1.5340383080138147 0 0 0
225 1 7.11910400338746 10.67549243943754 3.1185485349195017 0 0 0
84 1 6.582539815923761 12.643898113276016 1.4260193276639497 0 0 0
222 1 4.5687729615484916 12.605115180331715 3.3538885622844394 0 0 0
228 1 7.063134258274344 12.609591612180576 5.135562860337545 0 0 0
223 1 5.244566807500367 10.817802965249683 5.072460212447544 0 0 0
509 1 3.3254531651492782 10.579555353494774 10.56749111813615 0 0 0
167 1 19.7373652997564 -0.15351505284136888 5.3280009628721885 0 0 0
226 1 8.78850978068602 12.767856550108617 3.031634008472256 0 0 0
83 1 8.708695913748024 10.669725108960195 1.4374130379974495 0 0 0
202 1 8.565546912203443 8.671972866210256 3.2688918051845675 0 0 0
64 1 10.669915523399258 9.05936993637168 1.89990777346835 0 0 0
229 1 10.488693235755491 11.297127017021008 2.940506808379096 0 0 0
88 1 10.513751675368958 13.023633918615255 1.398920631218883 0 0 0
87 1 12.37695687072658 10.794623719805482 1.4060575864806961 0 0 0
206 1 12.426596220861816 8.866474503875812 3.3443108378507547 0 0 0
230 1 12.150966928058208 12.600175689564482 3.539428579460019 0 0 0
268 1 -0.23041505431240594 20.135729002561817 5.442146254613869 0 0 0
106 1 8.869048915183319 15.969579765686639 -0.08834507113974185 0 0 0
210 1 15.865411410689745 8.573827588091115 3.4286737039516244 0 0 0
68 1 14.295582366219437 8.562909528519121 1.4392122787622574 0 0 0
91 1 15.91703389440774 10.734103820554976 0.9355384320622695 0 0 0
233 1 13.894651845855384 10.7010317105703 3.2816449437454636 0 0 0
212 1 14.238198629641895 9.13499081165075 5.755656364012487 0 0 0
234 1 16.24118176618495 12.377556384489665 3.131788389010075 0 0 0
288 1 18.13310043047986 19.46765576385321 5.5091634746799905 0 0 0
231 1 12.208115336283763 10.778254669287296 5.237259099471786 0 0 0
235 1 15.849391704936458 11.005594340807157 5.030513573041209 0 0 0
426 1 16.433259349053834 19.62078517515542 7.239743584909985 0 0 0
52 1 21.55539367338355 8.901683823902363 1.5631204861349 -1 0 0
72 1 17.78782946926848 8.981846613456684 1.6588601254588753 0 0 0
76 1 -0.20019396712872056 12.601942321788073 1.7135048903461234 0 0 0
214 1 19.74686618542615 8.613915074983636 3.227975954422443 0 0 0
95 1 20.07753888656132 10.735581345766928 1.929389191590615 0 0 0
237 1 17.76684120024234 10.660920396283588 3.5727652804917116 0 0 0
238 1 19.76070935228477 12.564720714849523 3.531489318197057 0 0 0
96 1 18.09143688439448 11.923075868695905 1.5039417563923905 0 0 0
216 1 17.548205800158048 8.683180728907178 4.935535029687601 0 0 0
240 1 17.759085961740485 12.477157444589482 5.164284714443109 0 0 0
239 1 19.87371702653428 10.493388804161386 5.30306110188401 0 0 0
427 1 16.58846917296221 17.611778332958973 8.882471745362277 0 0 0
428 1 14.444500790310205 19.669216971150096 9.002298640215127 0 0 0
99 1 1.2569362949105036 14.577920532043999 1.701407777661533 0 0 0
242 1 1.4641692209958466 16.514018430406548 3.6808671726459847 0 0 0
104 1 2.878716110777033 16.606516356079656 1.619680843192252 0 0 0
245 1 3.0447331252297776 14.604873458765177 3.4563368972798103 0 0 0
241 1 -0.14083813080232857 14.456595458050257 3.4037324133606717 0 0 0
100 1 -0.1585881799218818 16.20794889827516 1.3970012677944017 0 0 0
305 1 14.523785862258494 21.225589257712482 7.132619553403769 0 -1 0
501 1 17.642509989938098 7.226122514430129 10.346555438545753 0 0 0
103 1 4.627699237765918 14.342887223893925 1.614876687476509 0 0 0
108 1 6.744437128261551 15.927841791829756 1.7045182202420648 0 0 0
246 1 4.716810179468853 16.218662936184966 3.6554443361178013 0 0 0
249 1 6.596454938726659 14.103026785822978 3.34684793856342 0 0 0
46 1 19.736290959983307 4.8401186376100815 -0.2611836860245965 0 0 0
425 1 14.653949225941178 17.838563191469376 7.316208546242427 0 0 0
138 1 16.452678489209173 19.764451025274585 -0.22794500056147293 0 0 0
250 1 8.725925460706502 16.188681135134118 3.3164980798987775 0 0 0
107 1 8.591595678260497 14.48690577338728 1.5266865635986455 0 0 0
112 1 10.499428411694902 16.224006622048474 1.6659578801451518 0 0 0
253 1 10.511218343262932 14.444832020543036 3.3931429490114606 0 0 0
111 1 12.581891998058765 14.406847839662143 1.5000851365646726 0 0 0
254 1 12.63011384950147 16.411622333133675 3.605606502884138 0 0 0
284 1 14.286161960682728 19.090118472259988 5.5279921206539075 0 0 0
458 1 1.5772081518580097 5.173996802508717 10.3983884159187 0 0 0
574 1 19.994281445161175 20.14329020281892 10.580382125693516 0 0 0
92 1 14.16149335378358 12.84452233328111 1.5375403849265166 0 0 0
115 1 16.24254941098965 14.454075156106528 1.4420731262035056 0 0 0
116 1 14.622557965069227 16.21779643350637 1.7333820114983727 0 0 0
257 1 14.64544404250317 14.475758403809667 3.584817422532335 0 0 0
258 1 16.45652477913297 16.199628564955397 3.5515485563406988 0 0 0
259 1 16.279728728007814 14.297038965156995 5.434524526454077 0 0 0
119 1 20.255723261798817 14.21012086636188 1.6035805050680727 0 0 0
120 1 18.295201751236362 15.904856198605877 1.9413018942484195 0 0 0
261 1 17.937525416761172 13.839492437426179 2.9838844004648255 0 0 0
262 1 19.92858682490954 16.153375869955934 3.4284574431755512 0 0 0
423 1 12.45839954493855 17.894248617214902 8.599259405812381 0 0 0
244 1 21.51563298830937 15.811076683088306 5.193646316089477 -1 0 0
264 1 18.00074751376935 16.342973777405636 5.1920479005949405 0 0 0
424 1 10.789848244185645 19.703785397217224 9.122947467941499 0 0 0
3 1 1.7666620255677699 21.176929492676766 1.9263036326470644 0 -1 0
149 1 3.5391005149966928 -0.2800494578805157 3.3199624320860575 0 0 0
269 1 3.242842755670526 18.207936597034994 3.577297532866481 0 0 0
123 1 1.3223199396150647 18.135635002134734 1.5634158140830632 0 0 0
128 1 3.324900813474681 19.536121909598915 1.424853469566834 0 0 0
266 1 1.25230844479045 19.509142622400898 3.654244612681536 0 0 0
265 1 21.57315746223077 17.938622604888355 3.846444758224944 -1 0 0
61 1 10.585948281832119 6.8820269896682085 -0.2975839249362449 0 0 0
7 1 5.226254780742286 21.23958603313325 1.2586489167691877 0 -1 0
151 1 5.1144336464332785 0.4004954409327933 5.059663654109345 0 0 0
273 1 6.87472536977857 18.1295095205905 3.5399369938099086 0 0 0
127 1 5.149370555655153 17.815070064512145 1.5586935340734818 0 0 0
132 1 6.801525586462601 19.55280386929116 1.564939604452753 0 0 0
270 1 4.997035498017207 19.778106716318675 3.1651384411537773 0 0 0
533 1 3.5164405711485163 14.393165734193492 10.595815651245966 0 0 0
157 1 10.765308102097919 21.51238425896578 3.2921701376232035 0 -1 0
131 1 8.643587476177991 18.00946225900052 1.3978997686259214 0 0 0
274 1 8.286379325505212 19.824272127420418 3.2668760983603278 0 0 0
136 1 10.52882677290395 19.835079812942663 1.463910590221085 0 0 0
277 1 10.381604471537342 17.839013251940354 2.9700453464540133 0 0 0
135 1 12.368603508608498 17.655436768865126 1.6542396698616548 0 0 0
278 1 12.421432151926018 19.621623547185106 3.3581964517772587 0 0 0
275 1 8.749848712719457 18.17312896644318 5.205886906029231 0 0 0
505 1 -0.16653004894645207 10.699791312991199 10.15815745928107 0 0 0
454 1 19.76155224057105 1.5115404788064393 10.594151512469146 0 0 0
15 1 12.734307989114242 -0.034491196598160245 1.5366010583296779 0 0 0
161 1 14.284707780886022 21.236201983069492 3.467700457331983 0 -1 0
489 1 7.07061119469172 7.050004168784913 10.35082780189319 0 0 0
19 1 16.05799017977173 21.468005519267127 1.5327593090006761 0 -1 0
283 1 16.243081110087466 17.96772460137081 5.110460428399263 0 0 0
139 1 16.430546270324392 17.500290289647463 1.3246217240318436 0 0 0
140 1 14.356019641906682 19.825555642968055 1.2220009007525388 0 0 0
281 1 14.59291731853246 17.81317430510661 3.1650498858538167 0 0 0
282 1 16.10157866252599 19.308451215118428 2.8139463875224413 0 0 0
421 1 10.293141464806341 18.23672559192096 7.416440371574244 0 0 0
287 1 20.232524819573914 17.989304779310043 5.828557759673481 0 0 0
279 1 12.158191961915458 17.873499318262905 5.24122047407506 0 0 0
145 1 21.130141502785147 21.388445931473907 3.4148779237894487 -1 -1 0
23 1 19.92850307619676 21.456006254037444 1.3310081062061159 0 -1 0
124 1 -0.2725667386308118 19.773911060964263 1.4888067819654578 0 0 0
285 1 17.96277941156638 18.198275796107566 3.3168808108827714 0 0 0
143 1 20.091083085125284 18.035501501548058 1.9094367498571962 0 0 0
144 1 18.273355265553352 19.88209900406364 1.6616745179153676 0 0 0
286 1 19.78122926064712 19.485523347159226 3.9593931310058244 0 0 0
419 1 8.78889872224364 18.078449700222766 9.188395514662679 0 0 0
290 1 1.7969038135614124 1.6885335111132507 7.136776656561233 0 0 0
296 1 3.8042165228738005 1.5139368912172881 9.078458661357402 0 0 0
317 1 3.41406655078935 3.620643489286519 6.907372346906893 0 0 0
315 1 1.776719171432485 3.216757545023581 8.771469508894182 0 0 0
313 1 21.47790211639953 2.9175224634223755 6.797868465536229 -1 0 0
291 1 1.8161664393082617 0.1463358797744203 8.93766516596217 0 0 0
293 1 3.6081706083863656 0.04014694245397832 7.299695373720925 0 0 0
156 1 7.281269500118119 1.5862922026533148 5.188829927569382 0 0 0
294 1 5.360024933105902 1.7352073056915525 6.866858497460809 0 0 0
300 1 7.138573354410683 1.4293648981913205 8.620686202607436 0 0 0
319 1 5.24059219696882 3.568504169366301 9.059473588470421 0 0 0
321 1 7.381067361475707 3.186057991801749 7.08584587904805 0 0 0
297 1 6.764985603662026 21.539274204259993 7.149594365619616 0 -1 0
323 1 9.057177091363128 3.446494131260781 8.761745766301882 0 0 0
160 1 10.99441480632557 1.6139234067017936 5.063884541431782 0 0 0
179 1 9.124170189578109 3.0603442073407146 5.1556446295651055 0 0 0
298 1 9.124168600132263 1.3911437964722797 7.178165029979336 0 0 0
304 1 10.741603827223555 1.784498906950014 8.924913339435516 0 0 0
325 1 11.032936758570672 3.1294049735434326 6.968940786594108 0 0 0
327 1 12.534324665116532 3.2253807434123303 8.746820160303791 0 0 0
302 1 12.771727948297347 1.280648908461146 7.1101887173751575 0 0 0
299 1 9.07857318135325 -0.2064269351243972 9.029502384656096 0 0 0
301 1 10.795994193747038 21.51090996164921 7.189960031705242 0 -1 0
498 1 15.773442010726665 8.847829848453385 10.533114984670148 0 0 0
2 1 1.8809029305071876 0.7109892758375103 -0.23195192236495682 0 0 0
187 1 16.184911903170587 3.2300795557030786 5.175618308841334 0 0 0
163 1 16.19991836982544 20.81903018924005 5.293188639915966 0 -1 0
164 1 14.683703643300884 1.2928252395893975 5.079656842709641 0 0 0
510 1 4.890269557487428 12.437836119068999 10.200883367647373 0 0 0
307 1 15.94795300381491 -0.08768269979272078 8.985594248840135 0 0 0
306 1 15.875692925124408 1.358075506552037 7.049380066582108 0 0 0
308 1 14.394231879835191 1.5943182966696627 9.11535548885702 0 0 0
329 1 14.507267736806316 3.1866886802193326 7.139544428043642 0 0 0
331 1 15.848143239269383 3.5406124236427434 9.539173494796774 0 0 0
102 1 5.319236331669821 16.346731261895986 -0.2665564849010859 0 0 0
148 1 21.32046620651594 1.5049843363124569 5.152940831323679 -1 0 0
168 1 17.762541731679306 1.251767623466758 5.005788659374595 0 0 0
292 1 -0.10438218662379714 1.5623391854844442 8.692273481734642 0 0 0
422 1 12.384460039503473 20.125511612787513 7.075552320347559 0 0 0
333 1 16.989114830536266 3.415216224090516 7.743512567162309 0 0 0
310 1 19.40096220182648 1.7304124939107601 7.236269567009195 0 0 0
312 1 17.69175035319597 1.5766976241614028 9.01823341523913 0 0 0
335 1 19.71199452395836 3.378196000888615 8.746762775764596 0 0 0
418 1 8.686330115855482 20.03052181230111 7.449487628749706 0 0 0
195 1 1.6105821939214162 7.15205139527772 5.1696192348722105 0 0 0
176 1 3.6736238160299948 5.208355531622345 4.835678292740373 0 0 0
314 1 1.3526295408956568 5.154554860007129 6.911704160820098 0 0 0
339 1 1.3596747366240105 6.9825804530986275 8.60791141709768 0 0 0
341 1 3.3730579117596857 6.861357427072982 6.8785299772847734 0 0 0
320 1 3.389990683388024 4.921266885686662 8.681078620932906 0 0 0
337 1 21.48793195792215 6.684919859166633 6.873569468249174 -1 0 0
410 1 1.9317408388207409 20.03513139082445 6.971186235189767 0 0 0
199 1 5.277753377087536 6.899793370412798 4.950404653684969 0 0 0
318 1 5.142677359106881 5.400320030778642 6.8685295640540245 0 0 0
324 1 6.771218192503373 5.268720210070531 8.540577173596922 0 0 0
343 1 5.358536958191252 7.1088773806587096 8.444446795996237 0 0 0
345 1 6.944727375935422 6.998589766086408 6.6095438803600794 0 0 0
303 1 12.730776928548774 21.472162338564925 9.201385341500668 0 -1 0
155 1 8.681423786954534 21.462963036878804 5.084244949727225 0 -1 0
347 1 9.05126547848098 7.0781046916960975 8.60504983383571 0 0 0
322 1 9.207193166537978 5.048521791671638 6.788604217855802 0 0 0
328 1 10.869359863905629 5.130680560780766 8.695537255502112 0 0 0
349 1 10.614501653460565 6.77699165801294 6.5642394901771866 0 0 0
351 1 12.270697063015687 6.92412869986239 8.579593287886182 0 0 0
326 1 12.58416905502816 5.008247995781295 6.8471570244844076 0 0 0
346 1 9.046787764238017 8.842624632047539 6.87536779300668 0 0 0
280 1 10.501512897951931 19.933731592215462 5.401437327896225 0 0 0
416 1 3.1442320455831045 20.020205549023405 9.134788036504307 0 0 0
159 1 12.539327465300564 21.501271226050424 5.061747778055766 0 -1 0
62 1 12.61727251797032 9.153332022503792 -0.2329078004594078 0 0 0
330 1 16.23118242589267 5.343205634905154 7.1520741991025645 0 0 0
332 1 14.208777031417652 5.179013974218751 8.530971270081626 0 0 0
353 1 13.971013352695692 6.940517212667323 6.812470528561526 0 0 0
355 1 15.309637025779884 7.103064977760761 8.627763428822416 0 0 0
411 1 1.6008190875701456 17.865155082120147 8.917727796301488 0 0 0
522 1 16.11578308907466 12.644685074365215 10.475217931400834 0 0 0
316 1 21.560582325049396 4.84588829917921 8.741193036276123 -1 0 0
336 1 17.831191208381426 5.078671493236381 8.89475427491653 0 0 0
334 1 19.453795811368764 5.230215880947705 7.241355077705601 0 0 0
357 1 17.823558088962766 6.965079664569558 7.344300320851085 0 0 0
359 1 19.830969352305207 6.922947649025791 8.73482384182675 0 0 0
481 1 21.378325016066395 7.064917125137957 10.430248791146312 -1 0 0
545 1 13.956640848584868 14.173425480315808 10.31593655802772 0 0 0
338 1 1.526166082389941 8.544485758528113 6.861943742151531 0 0 0
340 1 21.310081109272247 8.86776752643127 8.335527570064892 -1 0 0
224 1 3.4001700273501383 12.686156844386622 5.558964827577105 0 0 0
344 1 3.47802424397525 8.72024304201546 8.54295755969206 0 0 0
363 1 1.60985885315305 10.58488517452641 8.2729292202726 0 0 0
365 1 3.3614239476708616 10.74113042241713 6.3804532290418745 0 0 0
368 1 3.3862498807794137 12.341752094985377 8.483273053467823 0 0 0
362 1 1.4828271344634154 12.600001679185452 6.957373353745533 0 0 0
364 1 21.42989960415335 12.137795076091553 8.670839647215795 -1 0 0
361 1 -0.20651683354266642 10.545383542332347 6.829195003551836 0 0 0
414 1 4.961967258468311 19.860038167832048 7.108904467337396 0 0 0
134 1 12.587980020729745 19.868867770686244 -0.13308100499936376 0 0 0
204 1 6.963322676326633 8.914539075364155 5.0219153242929275 0 0 0
348 1 7.274611160122672 8.49448845073244 8.336953773947247 0 0 0
342 1 5.351853848165306 8.811867128210729 6.955554940125157 0 0 0
367 1 4.887871887353182 10.56368658078824 8.52159263897962 0 0 0
369 1 7.050678420816173 10.56726614673856 6.7698424431898045 0 0 0
372 1 6.805437061155812 12.285132289709324 8.761685388408276 0 0 0
366 1 5.340613005223813 12.607562507388096 6.883103478473902 0 0 0
271 1 5.265854462308071 17.93919610027458 5.3115831997616905 0 0 0
208 1 10.682492927025923 8.669688318325727 5.159745906741962 0 0 0
227 1 8.9763456960642 10.592177469860237 4.941212188053502 0 0 0
232 1 10.006006904328583 12.423156815122182 4.970835281929638 0 0 0
350 1 12.346309511495388 8.872458859770648 6.832445689381622 0 0 0
352 1 10.523367325530954 9.147472576583088 8.784175345017989 0 0 0
371 1 8.60496950314246 10.54863738703434 8.651096467929976 0 0 0
373 1 10.43225805424167 10.78496247375828 6.913558169014578 0 0 0
370 1 8.77987785757478 12.467428388936202 7.060132747396422 0 0 0
376 1 10.49169174182514 12.608287855254769 8.714203109891999 0 0 0
375 1 12.59859298310914 11.098087503757066 8.64272719179775 0 0 0
374 1 12.00342672465526 12.719214256285637 6.805473576398413 0 0 0
276 1 6.591128286699827 19.936724701952297 5.22573349514676 0 0 0
413 1 3.218748307075519 17.58992166843683 6.9891766876534165 0 0 0
356 1 13.921297895843102 9.106932422516405 8.340560229176843 0 0 0
354 1 16.20982628743707 8.705610931310058 7.066872217411767 0 0 0
377 1 13.743636694293608 11.454965722017379 6.740995881646128 0 0 0
379 1 15.899332720023683 10.493666210773204 8.5954535244621 0 0 0
380 1 14.356130201629115 12.415347782919415 8.959843243394285 0 0 0
378 1 15.897702297692994 12.58072482496537 7.111954745283597 0 0 0
417 1 6.85704053420974 18.219362506507455 7.544893428296673 0 0 0
147 1 1.8952558979395913 -0.22789735401307104 5.166223212498774 0 0 0
541 1 10.330515854316292 14.465597532593486 10.373953626815894 0 0 0
358 1 19.346517766523085 8.700593489674912 6.855779768257064 0 0 0
360 1 17.921163379821603 8.798690971085938 8.840221739157867 0 0 0
381 1 17.697591650252324 10.748960726955001 6.601999298160315 0 0 0
383 1 19.594449576043004 10.601394718932072 8.307438885893383 0 0 0
384 1 17.74360588931045 12.124700333249624 8.926532240562814 0 0 0
382 1 19.765341224854367 12.344338574323796 6.755548754865055 0 0 0
6 1 4.510122099461281 1.3498182510348646 -0.23860270417511342 0 0 0
243 1 1.4462917391645336 13.924108726837755 5.061592548430882 0 0 0
295 1 5.404577931589957 -0.13132824982869434 9.05175758030624 0 0 0
220 1 -0.30018951995033444 12.361707961821088 4.8462558040520305 0 0 0
385 1 21.432695961977156 14.488731649503782 7.152296798331207 -1 0 0
388 1 21.179576284064154 15.915591574428245 9.09808328087886 -1 0 0
248 1 2.971890535978051 15.948214055749428 5.676896645197692 0 0 0
386 1 1.0796801070091948 15.971127313522505 7.0304625848003095 0 0 0
387 1 1.3269687275105304 14.17235068577132 8.907224416983764 0 0 0
392 1 3.1554115399937097 16.033961567087424 8.95951924189547 0 0 0
389 1 3.157329882771908 14.377926484393168 7.355097608367907 0 0 0
415 1 4.818233595699617 17.942780116132315 8.96930366203287 0 0 0
247 1 5.166861326360708 14.586908173188037 5.197555387777677 0 0 0
252 1 6.968577570344286 15.975716060505228 4.9746156695516115 0 0 0
396 1 6.76121983845672 16.526820136932155 9.32274871787369 0 0 0
393 1 6.83926396752575 14.294747741143958 7.0913469049933315 0 0 0
390 1 5.478767217798945 16.269405974937445 7.378029196574952 0 0 0
391 1 5.100174396805491 14.29035577795596 8.58761504505784 0 0 0
420 1 6.741172320885703 19.530678287617665 9.370340448272634 0 0 0
251 1 8.523840166195551 14.400908567434367 5.006326622100939 0 0 0
255 1 12.158856307363004 14.599523966217095 5.356382628724529 0 0 0
256 1 10.475528181055607 16.310215803901304 5.445243442962848 0 0 0
399 1 12.261276751659485 14.260700905735556 8.752030733050216 0 0 0
398 1 12.515749525247143 16.389898058818147 6.905474785338319 0 0 0
400 1 10.671728848787447 15.861755458865055 8.497320726683686 0 0 0
397 1 9.976243991711893 14.413777942866117 6.793973863810489 0 0 0
395 1 8.350895422854393 14.501394000324924 8.687153176035135 0 0 0
394 1 8.61885110875746 16.414149156997837 7.19919159521037 0 0 0
236 1 13.946776167174598 13.062791057098623 5.068982239183706 0 0 0
260 1 14.259926203014992 16.004342015589263 5.336066303041804 0 0 0
404 1 14.045016357472813 15.97573182186845 8.751064545312373 0 0 0
401 1 14.069892815882342 14.18165528956818 6.999977001752606 0 0 0
403 1 16.02492788974388 14.711265223922183 8.692573803170403 0 0 0
402 1 16.231657570616242 16.108700033564173 6.841064366113395 0 0 0
289 1 0.009932835940476503 0.15250639577085784 7.13067786114882 0 0 0
272 1 3.3941464619357844 19.88459825104614 5.020860441833276 0 0 0
263 1 19.43007912970428 14.201213315049202 5.3717793910261875 0 0 0
407 1 19.618398114854553 13.875789152720792 8.710493454284835 0 0 0
405 1 17.80552035371844 14.191925825170312 7.068443910538109 0 0 0
408 1 18.387412490042085 15.904874672149472 9.142701876023507 0 0 0
406 1 19.511144417803095 15.952998348218138 7.303707835055698 0 0 0
412 1 0.15076477362763496 20.144051780726045 8.705119553119308 0 0 0
267 1 1.3850265968199307 18.165389996566592 5.553611123130501 0 0 0
506 1 1.5630567944326743 12.341522526215211 10.447294184890621 0 0 0
486 1 5.1401171618078525 8.787200314603155 10.32468857535163 0 0 0
10 1 9.133010702327857 1.4818218939170542 -0.2681003015108785 0 0 0
497 1 13.99038199498973 6.515704421150612 10.5005271684752 0 0 0
494 1 12.327098080441987 9.089796271779456 10.17388957172717 0 0 0
57 1 7.111356859591548 6.59639399711633 -0.1627582293229577 0 0 0
141 1 18.610280139949722 18.19612307968323 -0.038200804495471974 0 0 0
478 1 20.040691007998273 5.204660290901175 10.47635126044353 0 0 0
482 1 1.519246089574276 8.982078213938925 10.188407154210157 0 0 0
66 1 16.056726360519562 8.843263839119262 -0.2009545207833735 0 0 0
466 1 9.091285623911858 5.394396851510033 10.527433327362482 0 0 0
549 1 17.92060171704651 14.15065679891993 10.47919407781505 0 0 0
137 1 14.355299809557968 17.88392333484809 -0.20941526957391032 0 0 0
117 1 17.955778434040113 14.125818423386182 -0.07163945901478272 0 0 0
49 1 21.10207308833517 7.053483432525894 -0.19510047729288688 -1 0 0
94 1 19.916042080727127 12.283066701877054 -0.27241508280906507 0 0 0
493 1 11.000492380147218 6.796163325676784 10.524338925474254 0 0 0
542 1 12.433878061310667 15.974892477388135 10.541187374298056 0 0 0
445 1 10.831730760152587 21.25699001981779 10.580754024508062 0 -1 0
21 1 18.07964262922805 21.48100951604902 -0.23247617240550927 0 -1 0
18 1 16.19797037086843 1.3509990888565893 -0.052031133691425924 0 0 0
462 1 5.264920635183334 5.595157303188498 10.162740844760282 0 0 0
73 1 -0.22337929703250253 10.615122107070656 -0.1370345138523014 0 0 0
129 1 7.336882434891897 17.588395793266486 -0.09883432911037382 0 0 0
525 1 18.17919700053379 10.228688250928865 10.535874351741041 0 0 0
490 1 8.802565302623663 8.84756367026033 10.41523629555628 0 0 0
514 1 8.65102137413419 12.541930962496583 10.30913899594118 0 0 0
517 1 10.506092470044932 10.719550797664176 10.291271565962884 0 0 0
13 1 10.646481068948724 21.360297202066302 -0.23571491524654284 0 -1 0
521 1 14.295699079631536 10.42088690628044 10.568700661310384 0 0 0
70 1 19.661885091100945 8.809032205983854 -0.2984815934529621 0 0 0
17 1 14.31144323366738 -0.10254744913580705 -0.2909857391732231 0 0 0
26 1 1.4252448385758214 5.159180853045431 -0.18698837987316708 0 0 0
442 1 8.934816438665992 1.7229361493709319 10.601494814927403 0 0 0
5 1 3.4805311888606694 21.175162595065142 -0.21188572500841474 0 -1 0
453 1 17.82397397505486 21.53479095283652 10.624186006428912 0 -1 0
86 1 12.27857181152416 12.551948173307382 -0.27799068435232854 0 0 0
121 1 21.411972201752754 18.199907025941098 -0.26959888623240147 -1 0 0
97 1 21.55676822550254 14.299923981828519 -0.2808043036488108 -1 0 0
459 1 1.6714704946650059 3.813127272627307 12.441504511505887 0 0 0
578 1 1.553759721425167 1.6651475755145702 14.39201932603146 0 0 0
605 1 3.367421187661506 3.3238381383344096 14.407903022123556 0 0 0
440 1 3.4614371883954322 1.7236869138707038 12.645846396420236 0 0 0
579 1 1.6117390293235436 21.476668083317303 16.322706675422122 0 -1 0
601 1 21.44632578919843 2.8843897062188852 14.485399820188311 -1 0 0
436 1 -0.27883932093011765 1.8729753798432052 12.271343145784568 0 0 0
581 1 3.2793864436993454 -0.23509118476923715 14.142482305596067 0 0 0
465 1 7.299611859507927 3.720955408269619 10.954510060640914 0 0 0
77 1 3.2475022279970522 10.604381237882333 21.33123747927823 0 0 -1
444 1 7.086766214138906 2.007075012643808 12.587911854011942 0 0 0