LAMMPS data file via write_data, version 29 Oct 2020, timestep = 300000

864 atoms
1 atom types

-0.5584361508500351 21.82243615085212 xlo xhi
-0.5584361508500351 21.82243615085212 ylo yhi
-0.5584361508500351 21.82243615085212 zlo zhi

Masses

1 58.933

Atoms # atomic

256 1 -0.3974087505405134 0.37864106041812484 1.5393255906835557 0 0 0
464 1 1.8062449757986418 -0.4758381098034398 2.387239398043909 -2 0 0
780 1 1.802444223503135 1.8378620498560356 3.0964734996995413 2 0 0
284 1 2.1217986821789108 0.7085595305584762 0.3944635028506279 1 0 -1
705 1 4.908314839317107 0.900105756690412 3.524942768445234 1 0 1
729 1 3.9786521358123697 21.682997082693884 1.448123400629782 -1 -2 2
233 1 16.196944041579567 10.248461615905926 0.6069975665036746 -1 0 -1
245 1 15.096650088407085 0.5946711677961127 -0.22496147834990166 0 2 1
2 1 3.9424982374611215 3.3191767311541485 3.9920262446772057 0 1 -1
436 1 1.05842893784078 20.923053092539423 0.3615775070798304 0 -1 1
383 1 7.777221567978032 2.8057178190773167 4.326794426904254 -1 1 -1
517 1 7.353574588845918 21.678179798157913 6.649644329514146 1 -1 0
370 1 0.9725509577904639 1.4533587727164177 10.12750555203879 1 1 0
547 1 6.278343617128396 4.530922501350232 5.136617791453688 1 1 -1
134 1 7.90373973117125 2.9678660337600813 0.32941107086503707 -1 -1 -1
696 1 6.179582243153514 3.7613715896415885 2.410157196121597 0 1 1
458 1 5.862475843559483 1.4717031754810166 0.6979713487734622 0 0 -2
409 1 7.603521390960125 1.279322518652031 2.3377109898247648 -1 2 -1
229 1 -0.41861826043498995 19.927673487770978 10.458986539293887 1 0 0
531 1 8.70900906887421 0.6535975358199297 4.558467758508515 0 1 0
57 1 11.856148552877087 16.15013695917873 -0.5356531623326122 0 0 0
143 1 12.621466819675353 0.3399705473087895 0.3568900342765302 0 1 -1
30 1 11.706419080536316 1.1502367072127295 3.568781172388209 -1 0 1
528 1 12.466672152239799 3.1190305155479656 0.7013643808593077 0 -1 1
381 1 11.96756849671836 3.530158494075067 2.7668538772473616 0 -1 -1
643 1 10.177974136893573 3.9774468235687968 0.0863731356686327 1 0 -1
62 1 10.476680472340352 2.0365493802907673 0.8099532541326269 0 0 2
673 1 14.068131972687475 20.893665580961557 0.966183941170428 -1 -1 1
54 1 14.235010643331323 1.8750798168244684 4.091482854874462 -1 1 1
277 1 14.678844658370203 3.2346567670490245 1.3856620888985276 0 1 0
457 1 14.081985205627593 0.6941908070297127 2.063281335874483 -1 0 1
115 1 16.487839608247107 -0.4806221255701912 3.8325883986782276 2 0 0
585 1 16.72577488325852 1.5268059395106093 1.5589935526750107 1 -1 -1
135 1 -0.006268413169129072 3.0648014293510264 0.7193641885026099 1 0 -1
448 1 18.923992915630585 -0.4908611536997633 4.131278710223165 0 0 0
40 1 19.277576150633877 3.086186792003435 0.9480007418350025 0 0 -1
171 1 20.682758507542314 1.7505737386231117 3.238133078899656 0 0 0
846 1 18.501017205104006 1.5628043979207642 4.6572613108246586 -1 0 1
192 1 19.312471593731143 0.8597984840802091 1.529899032642723 0 0 1
152 1 13.345231659669711 8.496798651053412 10.35844265427374 0 -1 -2
653 1 17.949959378160703 1.2276303058316747 -0.5117568372609733 0 2 1
693 1 3.996676080234291 2.152557097403202 1.5316619127166042 0 0 0
487 1 21.088606392046604 7.491593052530806 3.0124184867635693 0 1 0
621 1 21.588104059553228 5.204110542982089 1.7873995008542987 1 1 1
431 1 2.0929587166837416 4.139958610056901 5.116756622714782 0 -1 1
587 1 2.021761195944722 6.727797284891303 2.451707898365314 1 0 0
269 1 4.762489090949765 7.989321524706755 3.1504148366036753 1 2 1
377 1 0.5223207281383082 6.102928234391708 4.694721467692012 2 1 0
661 1 3.6293334217599913 7.607308664127531 5.228605963132673 0 0 1
566 1 21.565760827478186 3.6611468420245536 4.488672124989979 -2 1 1
581 1 8.22432427223847 20.087554328404067 10.242754687390915 -1 -1 1
9 1 21.521398413140883 7.3662491078233545 6.540285819802385 -1 0 -1
356 1 1.0592081795460608 8.359404374614789 4.438767074886357 1 0 0
173 1 0.885956059398247 4.158774530105541 2.9561694421629254 -1 0 2
539 1 6.233370798912519 6.199001478422669 1.760098096575664 1 -1 1
175 1 4.513688202423315 5.486022103620923 3.284578490968654 -1 1 0
560 1 6.521843893570348 6.905035501040067 4.375972780670429 0 1 1
353 1 10.149169822639875 5.352850148209308 2.7293507232233187 -1 0 0
440 1 8.871322222396405 7.831898249950273 4.360159386384267 -1 1 1
144 1 7.819010183354932 9.060613641345457 6.136258864604002 -1 1 0
420 1 3.1815149435508947 4.485698250838063 2.02285162505021 1 1 0
56 1 7.397816924876294 6.254923554631157 6.441944284489504 0 0 -2
614 1 8.43869760695695 6.940297586196127 1.9974795756791002 0 2 1
595 1 9.621965091490557 3.1200616002231385 2.7463870414922136 -1 -1 1
210 1 10.91789813298416 7.874150027728467 2.097510456315664 0 -1 -2
41 1 14.64672407307988 4.4735719048539195 3.862064568564201 -1 0 1
177 1 13.176809972684847 7.709594964754745 2.424506160083006 -2 0 0
540 1 7.977695807280627 5.157313835960243 3.488605617202408 -1 0 -1
836 1 9.26660377571875 8.740443769007562 0.7270433421011282 0 -1 0
439 1 11.235008651280694 6.185013014593453 0.8045165262530265 0 -1 -1
749 1 8.081358962227482 5.4899059915946475 0.33922664924498946 0 0 0
525 1 10.608060826580541 9.728319695183256 6.490124990440225 0 0 1
816 1 5.2585226190614645 3.9681718881442016 0.2650735872504555 2 1 1
813 1 14.636245174013625 9.288991968140813 4.550645230495832 0 2 0
395 1 16.47733495526964 2.0268762966712894 3.7654085491400844 0 -1 0
31 1 15.374758101575688 6.501534555194609 2.475073029249777 -1 -2 1
200 1 17.02808897646739 3.931157171733899 2.5150955662416115 -1 1 0
573 1 17.35972422063793 4.13609170782456 4.900818929818301 1 -1 0
607 1 13.364795382637313 5.207154588875573 1.9442885529384255 0 -1 0
804 1 17.293963059232443 6.256986033392495 1.2704550472204466 -1 1 0
434 1 15.453429313173604 5.0280519936482255 -0.12725965243530257 0 0 1
108 1 16.39257325415807 2.8648289384646985 -0.27540268629306625 -1 1 0
718 1 19.24682396288586 6.157194340686267 2.735262137511094 1 1 0
677 1 17.554585689724586 8.443311415911827 2.5693588032316277 1 0 1
296 1 9.675040741213294 13.165740565409362 0.1444769111508314 0 0 -2
385 1 19.498940128882708 7.316823093321515 0.534219477768263 0 -1 0
654 1 20.620946475655913 6.147832255684854 5.267372119350168 -2 0 1
80 1 19.554516392446608 3.7563461396128988 3.2126224578579015 -1 1 1
521 1 11.131965193632196 7.24705912220099 9.377523221553266 1 0 0
278 1 -0.48749313744299216 6.822097315780948 0.34301081708571013 0 0 0
333 1 2.9213373321064253 11.266773654436369 1.6873261010309117 1 1 -1
745 1 2.785017680530097 11.901389764025968 4.18853343599076 1 -1 2
719 1 4.358358011749868 12.733438382519326 2.265968955680899 2 -1 0
571 1 5.116221756473874 10.435465043944417 2.429573208970892 0 0 1
833 1 6.881303895918953 12.117093273758558 3.1726026634259754 2 0 2
258 1 0.3646115500997881 11.800115421986273 3.1129071401840775 1 1 0
720 1 21.463534177560845 13.944516375818827 2.051993121923766 0 1 1
598 1 2.742622116268685 9.492731608453298 3.249415270461052 1 1 0
477 1 0.4543576859676426 13.668633843614169 4.308671840482609 0 1 0
645 1 15.995879897119675 19.177419371966494 0.8550371463611024 1 -1 1
132 1 4.939440081547253 12.499541783580026 4.968193264049159 0 0 1
700 1 6.964759708809809 9.021590335877466 2.822123754062084 0 0 -1
387 1 6.517826261639055 9.215281827201606 0.47090822962926193 -1 -1 1
684 1 8.915505930638059 12.356693626424063 4.419983682010434 -1 -1 0
468 1 3.5692809489883013 8.867222177664358 1.0799418179588884 -1 -1 0
717 1 8.192437653439272 11.227827463580734 1.2892018015757132 0 1 0
667 1 6.923532096387267 14.28717065648416 4.714554180856173 1 0 0
166 1 20.00566959816811 8.51320286951429 10.283582052015849 0 -1 1
33 1 5.2305792235463455 8.100497465180418 10.202076144521373 -1 0 -1
650 1 8.972515071679211 9.947462249698951 2.953899044676869 -1 1 1
859 1 10.360827678940451 12.399553854275323 2.2520514802277973 0 0 0
640 1 11.055157201347484 10.218709400881753 1.2592178882323786 1 0 1
323 1 13.056213760771248 11.799499797835814 1.1571151615920745 0 -2 0
360 1 13.136541614081413 9.675503270096085 3.207212691794523 1 0 -1
342 1 11.529632641134203 13.75620653292222 4.594722111701259 0 0 0
392 1 13.847738901010654 9.603418689947551 0.26125154365581005 1 0 0
748 1 14.731510535844306 13.938003604661825 1.1057885372267937 -1 0 1
349 1 14.997230635879903 8.987344584937032 2.2279328711232282 0 -1 0
841 1 17.686706082133522 10.762909630813928 2.2810793593969567 0 -1 0
187 1 14.673501312732794 11.297032825380306 2.5788536087822007 -1 0 0
554 1 15.644422078107016 11.20438419103891 4.87007030874585 -1 0 1
72 1 16.406010347789195 13.294847721689754 6.314688324823473 1 1 -2
61 1 17.50172891128769 9.92183372105476 4.487309546188829 -1 -2 0
625 1 3.425306277099316 2.4642701353439933 9.734277263953834 0 1 1
427 1 0.4633363931354064 9.609292531153146 2.036827624263064 0 2 0
265 1 16.81729840041167 6.661690479974492 4.003338762521627 -2 1 0
532 1 20.820765824759636 9.038866616971138 0.8176523039535004 -2 0 1
600 1 19.025667466127942 10.224054962806512 0.4031888138855918 0 -1 0
20 1 19.645952766433926 9.618563852789654 2.8360666646694983 1 -1 0
7 1 -0.09604240323054003 11.962484568902672 5.722635818291384 1 -1 0
469 1 21.298516429562902 11.478351008651243 1.4975462439675273 2 -1 1
615 1 20.531250223099388 12.025738133648193 3.9109239415693455 -2 -1 -1
526 1 21.568750376024788 9.794523268206746 4.025671385203663 -1 0 0
604 1 0.8879050706866569 15.521378974817534 2.545450509759416 -1 -1 1
622 1 1.5886748342171644 13.81164507816699 1.1854186441316874 -1 0 -2
288 1 2.9022597451692915 20.0129470407841 9.749076543591597 2 2 1
811 1 4.75640122406959 15.569019559238317 1.3545517303911445 1 -1 2
814 1 3.3333268469967967 16.71369302666116 4.1709354146670865 0 0 1
578 1 18.348941335410018 17.945385501281162 8.85758124061611 0 -1 1
267 1 2.5986512275087397 15.734106386661722 0.38631029484223356 -1 1 0
771 1 21.554895701912063 15.79437323571949 4.3340189523658434 -1 0 1
485 1 2.91450714700708 14.398350564219179 3.094475526819688 -2 0 0
160 1 3.2836505092206107 17.626894866561074 1.9035775825028058 -1 0 0
739 1 5.145999336606824 11.371410316427376 0.09132001196358108 1 -1 2
37 1 13.105451956710553 18.49561490595992 -0.3136944886969595 1 -1 0
543 1 8.349780360993298 13.760213684116302 2.2264346302835802 1 0 1
16 1 7.13644845060579 15.715918646219574 1.4552070747446741 0 0 -1
426 1 9.77163438437387 15.797647982535885 -0.35872419621258383 0 1 2
53 1 5.750513218485612 14.150740306640222 2.9421050316937953 -1 1 0
534 1 4.906122984182627 15.533125694825497 5.203238198357873 0 1 0
512 1 17.996060649413426 19.737060273594025 7.786681924664018 1 -1 1
823 1 17.637087849133785 8.33688379303741 0.09989575401910977 -1 0 1
276 1 21.32123658603035 17.201718684295848 5.861100532454552 0 0 0
697 1 9.047036734038267 15.147369149949618 4.117359811225057 0 0 2
414 1 11.322904319705968 16.277571933327728 3.8070116101697664 0 0 0
231 1 11.29309019520768 14.509138123524304 1.858994176956689 1 -2 0
85 1 12.777711124139483 14.058159794016166 -0.11294213764700323 -1 0 -1
812 1 11.25161153031381 19.282845431037778 5.335294427240091 1 1 -1
862 1 11.982905179446618 16.80206012959066 1.9429281110411547 1 -1 2
226 1 9.053022109977034 16.572792381983394 2.0248174518627953 0 -2 1
513 1 11.074212352958911 11.955173230173848 6.054409968311775 1 0 1
611 1 16.165553159662448 15.283752870184113 -0.09210444380761262 0 0 1
782 1 0.6981681490674667 10.919874325863939 10.45775281634903 2 0 -1
599 1 13.467483848505044 13.45771761616551 3.0597554038276646 0 1 0
497 1 16.61936981863712 17.444411815786687 2.3487717743850602 1 0 0
593 1 16.301528987663836 13.37249380273946 3.3696068835215978 2 1 1
742 1 13.013339708890589 15.334305051242493 5.488288926290161 0 -1 0
736 1 14.674113048704589 13.629317041710145 4.951959019518785 -1 -1 0
410 1 17.311091446015386 15.12533570832754 1.9979673727795801 -2 0 0
591 1 6.093421730777546 6.022610959883447 9.14902562173566 -2 -1 0
120 1 8.927349620229391 8.086482729769322 10.365554634115085 1 0 1
133 1 18.081301533699765 16.98573070767299 0.25891771443788336 0 1 0
104 1 16.760555813151427 12.795170899652636 0.8584432557560435 -1 -1 1
544 1 0.7219638657978367 17.71634400107851 4.138213937830979 1 0 0
552 1 19.052754398260014 14.633698457115303 3.4083140913363654 0 0 0
60 1 19.059178888518687 12.76473256157031 2.033720022451419 -2 -1 0
416 1 19.61119775124961 15.095757133670608 1.0294337603181334 -1 0 2
386 1 0.20949263427381049 15.44841335929243 0.34974163873450403 -1 0 1
641 1 18.842082691102934 17.8028178867745 6.318592924194254 0 -1 1
29 1 0.7020546658908058 17.813989525350046 1.4565341248607675 -1 -1 0
831 1 2.882330991299227 19.702860445108524 1.0859406142541852 1 -1 1
778 1 4.390683552682555 13.613706598258583 0.07886149661022623 1 0 1
536 1 0.14985009038194974 20.272715294789272 2.231111081395381 1 0 0
201 1 3.082591982935897 19.08372122723532 4.24161288246201 0 -1 0
810 1 5.06433747894389 19.352738673702913 1.0787775515527487 2 -1 0
767 1 0.7172959683717255 19.0655144169631 -0.3084178465402779 2 -2 2
178 1 6.677716966457185 21.811751012948246 4.365798283470951 -1 -1 0
43 1 5.2307526229717975 16.999017255773158 3.0457816818165666 0 -1 0
393 1 3.7194655663794727 21.067748329101708 4.3974768236463415 -1 -1 0
121 1 5.131691861631382 17.16165588018617 -0.046652081990451566 0 2 0
510 1 6.624557272993448 21.535410926166385 1.743129150424338 -1 -1 0
154 1 7.062618454159332 18.040707352838265 1.767813574127056 0 -1 1
786 1 5.395433344593154 19.337203061862976 3.2824685500175024 2 0 1
247 1 7.1570034009119565 16.357203544638356 4.012569494806764 0 0 1
647 1 8.732720629230311 0.3847269672222825 0.44257703827152084 1 1 1
295 1 9.458315957926168 21.15870787301677 3.279588295160805 0 -3 0
773 1 14.030111809536814 19.181792999506094 5.407854281876098 0 0 3
741 1 9.059877224402234 20.184584416074696 1.1194460616266255 1 -1 1
334 1 10.762582260292772 17.799550396112068 0.38519905215897754 0 0 0
125 1 10.829034047519915 -0.3361429161407632 1.6853712688041176 0 1 -1
623 1 8.7333344440708 18.66317602975258 3.233709524193563 1 -1 2
430 1 19.792242201969966 5.058385197511839 0.13973810145749999 -1 2 1
710 1 11.262145259452563 18.788585601340603 2.894174393337372 0 1 0
864 1 11.521575956004966 19.986289226244747 0.5909809828226327 1 0 1
731 1 16.92499558160186 21.53502618868725 1.535731698811083 0 -2 1
711 1 12.548241468375144 21.037944448326073 2.7041658717370347 0 -1 2
122 1 16.01181445179705 18.588031737519813 4.381692960193579 0 0 -1
6 1 17.506580199239213 16.80549712286754 4.262366393370718 -2 -1 -1
378 1 14.83828789787416 20.14562395805305 3.119545320336158 1 1 1
808 1 13.756232985313202 18.739265847562812 1.8351484185736053 -1 0 0
261 1 17.88590989264976 19.529646837776433 3.20453105677557 0 -1 0
679 1 16.18629740312981 20.958785272566047 6.409420204866325 0 1 1
707 1 14.318813547611766 16.378972002119163 1.1254645446375768 0 1 0
770 1 17.194493904202663 16.33214906038671 10.528236836234827 -1 1 1
538 1 -0.45990569756133076 -0.08555989046288603 4.487683694557887 1 0 0
704 1 17.81400894151927 19.84527352670597 5.441743798894947 -1 -1 1
126 1 18.31472144779479 19.08407715740905 0.9956366080523584 1 -1 0
744 1 20.773155014273964 18.861750088419214 4.399239924365634 0 0 -1
228 1 19.02536387059258 21.299261748244056 0.0589359882794519 -1 -1 1
754 1 21.24627189605013 21.306249696375325 0.03871259334437227 -1 -1 1
442 1 20.215215531196606 20.12934563145139 2.1394911641262104 0 -1 0
308 1 21.31726174436863 16.910369422100334 2.244681007783834 0 0 0
169 1 7.25477091028669 9.50728978128258 10.228957495970336 0 0 -1
500 1 19.376178558513637 17.645946313915626 3.458242717485863 1 -2 1
790 1 2.969088217858542 1.5254489844151942 5.227411598931156 1 1 -1
563 1 20.229461800034095 1.2809458031446652 6.098120601013485 -1 0 -1
289 1 1.9767280575727595 -0.439036611013485 5.467559543489315 2 0 0
280 1 21.767945534571755 21.34258324059177 6.68863582031231 -1 0 -1
527 1 21.507102069964926 2.150108716534123 9.130334906170498 1 -1 0
449 1 0.06022301457217505 1.0270155625697126 7.392734090132908 -1 1 0
150 1 0.7440069221591867 2.0694578046935406 5.232146096568105 0 0 -1
594 1 3.934006380575454 6.238771437300956 0.5835955172382192 -2 -1 1
32 1 2.764096443169248 1.0052246504736126 7.970589017987239 0 0 0
286 1 -0.3312830423282724 -0.22460900884031726 9.381355745500645 2 1 -1
398 1 6.541770848550238 -0.0038765225083318144 8.950835767039603 1 0 0
466 1 11.09845409677992 1.5354496935779856 10.190899309191577 -1 1 0
219 1 5.700359438119526 1.8346641066835119 5.47272976781816 0 1 -1
715 1 5.039187873598945 1.6325259111751027 8.15642355028975 0 0 0
842 1 5.11730499506433 3.9185114873362945 9.625095049631566 -1 0 1
136 1 7.530305322988379 1.8409342150976444 6.723861105882675 -1 2 -2
695 1 4.124109422452899 3.7272004518539017 6.470427058743394 1 0 0
451 1 14.213083316533021 -0.1037529922229965 4.97168796115131 -1 0 -1
128 1 8.853192904164057 3.243597908980001 9.959078914625541 0 1 0
558 1 8.55928854468604 0.8948754241071322 8.633509873541371 1 1 0
854 1 10.861762114021689 21.408316951227757 4.960596743870908 1 -2 1
263 1 10.378088578568452 2.6464414604723125 5.210152082513197 0 1 -1
789 1 11.271376661162545 0.21623158982289448 8.060782570688797 1 -1 1
225 1 12.529649969594667 0.855170101337267 6.03476773049312 0 0 0
159 1 7.373059762256715 12.592369764856734 9.3529519096767 0 -1 0
830 1 10.163434113600026 2.697745998947106 8.209209455935687 -1 2 1
5 1 10.120011461567184 0.797176293835355 6.43198869467534 -1 -1 0
603 1 12.64111046232316 3.4612654258852604 5.076829283058541 0 -1 -1
137 1 15.288996728854054 3.834026462146622 6.017033149072815 -1 0 -1
743 1 13.32516254956357 20.341941107723084 9.335411595226695 1 -1 1
423 1 12.202125042790492 2.690163452263502 7.401034927837117 -1 2 2
68 1 16.3284663547237 0.4358084136833259 8.282917686108043 -1 0 0
822 1 15.571100457185857 2.643623387230712 8.984394269161848 0 2 0
454 1 13.58727961837804 5.576898475222044 6.565213030093977 -1 1 0
42 1 14.51076272359813 1.685389926600747 7.066373039995101 0 -1 -2
237 1 19.836296024021202 20.49312459059048 5.91511092229203 -1 -2 -2
399 1 19.872642181643002 0.6359470467080288 8.677647372115434 -2 0 1
419 1 19.51701020023349 4.206414444960402 9.873621487354482 -2 1 2
763 1 17.746215800888454 -0.10269647597905374 10.145444297745335 -1 1 0
172 1 20.72139335047079 3.1378969541116124 7.378062309673587 -1 1 0
36 1 18.15400480128265 2.3609871524992476 9.377530219593929 -1 1 -1
635 1 17.687716137259965 2.759108306853496 6.848837862156624 0 1 1
412 1 17.309773871837645 4.813055704393443 7.548111506927173 -3 1 0
714 1 18.516880186464853 -0.17877656255062102 6.867749363851143 -1 0 0
10 1 16.46680608316167 18.079831409039905 6.807767221631247 0 0 2
17 1 3.1102274133706946 4.76908045291866 8.131668546497938 0 0 0
67 1 6.859789616383997 2.096100908919253 9.559139449054609 2 0 1
168 1 1.5258446786240474 2.744739231112136 7.741486405812427 2 1 0
443 1 1.0986479603500892 6.140966542105687 8.167874490211283 0 -1 0
723 1 21.70528611827758 4.762559511502144 8.98531069069614 -2 -1 0
450 1 0.9905946985866245 8.63850882287725 6.860949776513168 0 0 0
140 1 3.3918216855175696 6.929125521315574 9.48303439093467 0 1 0
364 1 2.19497485926877 6.236002226072839 6.204744330662198 0 0 1
390 1 6.792827351545721 3.866554044667253 7.84473395449761 0 1 -1
759 1 8.289712011529755 5.662989703904099 8.780019331264779 0 0 2
100 1 4.881999065988016 5.74716007923072 6.834106914232742 0 0 -2
181 1 5.520024578754962 7.993828888149393 6.5580106450788795 -1 0 0
505 1 7.356973615991243 7.817907566515052 8.141392707761835 -1 0 0
610 1 3.1412731662032027 8.17225689742908 7.501786723274604 0 0 0
1 1 17.59120719664688 20.043461411209687 10.583034064133678 -2 0 -1
331 1 11.979843000247524 5.239961327509289 8.782556544109854 2 1 0
618 1 10.320526711272754 6.495094865585912 5.269877332076109 1 1 2
524 1 8.9545263330491 4.280834046934284 6.1231452418426064 -1 1 2
341 1 11.299924156799877 4.601776439886855 6.7622839030154696 0 0 1
218 1 12.364472538675896 6.024639753122293 3.607674850129384 -1 1 1
733 1 13.550368715911757 6.877969407961735 8.756794456968823 0 1 1
203 1 11.78582415513714 7.4489069609346075 6.927046009519914 0 1 0
221 1 12.995717447299315 9.553333154106252 8.23002549711169 0 0 -1
87 1 9.856837246962513 6.415929443919464 7.573646997729789 1 0 0
472 1 20.31224929358106 19.193591083698237 7.769709144152079 -1 -1 -1
105 1 1.471726764012069 5.63589606040621 0.04769766598642722 0 1 0
99 1 14.333884766998372 7.800416354982833 6.749384429124492 0 1 -1
268 1 14.936032200480986 5.153434765126673 7.935011476643787 -2 0 -2
273 1 14.166902155571778 7.133042804310913 4.656706014479784 0 2 0
488 1 18.468689070285205 6.297921163023421 5.610072755761033 0 1 0
546 1 15.953683697076691 6.295273822206591 6.122592984211534 0 1 1
537 1 10.144177375616682 18.243303917896984 7.331241110074918 0 0 1
12 1 17.026947632639363 8.273881695184386 6.7149112654729475 0 0 -1
27 1 13.903060494953413 4.523024996555997 9.739139582645437 0 0 0
249 1 18.678463431174603 6.1059481668000695 10.102060580610559 0 0 0
26 1 19.500781519970502 3.976481589801656 5.615182122614266 -1 -1 1
131 1 -0.052239720862624295 4.505080155495593 6.250706845043506 1 -1 0
330 1 16.52064343171013 7.194110935298297 8.730073908728965 -1 1 0
775 1 19.381606639501616 5.464937931173706 7.688190397911262 -1 1 1
769 1 19.51371310977971 8.371173248963636 4.773525239611633 -1 0 -1
572 1 21.381718337004195 6.970071787354206 8.971826250455461 0 -2 0
346 1 19.336498181686004 8.223555289377039 7.563845394325643 0 1 -1
734 1 1.29645149745425 3.818020468245474 9.76791843479264 0 -1 1
551 1 1.5807822993105973 8.254975411579474 9.278671729444095 1 -1 1
69 1 21.324308875433026 11.946520518292745 9.186619950151195 1 0 0
575 1 2.7388119436947966 10.052668475128979 5.729605404862171 0 -1 1
784 1 3.0650127078699283 12.076658171486592 6.741897373887689 0 0 2
461 1 1.0121247739688384 10.836686052619212 8.029303404858318 1 0 -1
652 1 3.1972554069615833 10.285395431097218 8.365328517469072 -1 2 1
248 1 -0.4947474024909479 9.306902299119049 8.872831981307257 0 -1 1
195 1 5.272558541838653 9.988216703398646 4.83076006476292 0 -1 0
78 1 7.093857662708663 10.30864868643988 7.955311123045211 -2 -2 0
196 1 5.1554463732027935 10.90640600856339 9.860101512904702 -1 -1 1
213 1 7.36620362011665 11.153431116496636 5.225839551468318 -1 0 -1
429 1 5.035688443392511 10.585995964304537 6.968215852398794 0 -1 -1
325 1 13.44691337176978 18.250653447933942 8.19783803476675 -1 -1 1
496 1 13.828347945753 21.69636158374466 7.213350568908303 1 -1 1
74 1 15.21469262094154 15.811791991858268 3.6129781473158538 0 1 1
141 1 11.028637971276982 10.617492775673101 4.030278642393419 -1 0 1
619 1 8.962854745904295 11.420625978279906 6.995501899494859 1 -1 1
795 1 11.670136840772932 8.171530904012238 4.550629789589662 -1 0 0
444 1 8.87542279401023 10.9029274510375 9.697271182211953 1 -1 -1
257 1 10.268219935860964 13.297649195566919 9.132231357862397 0 -1 1
479 1 9.150145511792942 8.96691613625824 8.365902581009419 1 -1 -1
97 1 13.254043367975278 11.521163337063241 4.396226294525015 1 0 -1
518 1 13.661267017181462 11.462549573382727 9.149509001721142 0 1 0
405 1 12.897866694820946 9.688305222893318 5.99589301372142 -1 0 0
556 1 17.715103982857215 10.960133355244606 6.771200892946203 -1 0 1
579 1 15.113805412397012 9.80339362449953 6.9511217758444035 -1 -1 -1
807 1 13.50422091076244 1.2226684784407034 8.930262413629709 0 0 0
474 1 14.938727591255988 12.958725664941927 8.160357147876613 -1 0 0
576 1 19.708701671352 12.751252774782053 -0.0864184756753742 -1 0 1
515 1 11.17213689907552 20.57521355150094 9.64007513313298 0 1 1
766 1 19.714555983613508 20.845518988384505 9.389643929799135 1 0 0
227 1 19.483331556118976 10.481047122623194 8.948685433905768 1 -2 0
310 1 20.093698127882973 11.965837368882626 7.056622158002941 0 -2 0
369 1 21.301215011383007 9.819764219365192 6.684129501510764 -2 0 1
123 1 17.701832208900157 9.295326844461433 9.319267024786617 -2 0 -1
55 1 19.676660281791698 10.561631126092676 5.276841441963879 -3 0 -1
646 1 18.833409625727725 12.853748939471817 9.465913905900578 -1 1 -1
839 1 16.676000090575876 11.469843382349449 8.703375479155788 0 -1 1
24 1 18.334717684056322 12.501183527491154 4.835496226871348 -1 -1 1
151 1 0.8803653968804264 13.644998426045436 6.845957614699995 1 -1 -1
285 1 2.434390569181571 14.136417908567344 5.317571119661744 0 -1 -1
861 1 1.9345987792090984 15.287621187522905 8.234609260645485 1 1 0
170 1 15.588450573160866 0.6488499246380177 10.5532807756908 -1 1 -1
649 1 15.525977267783677 19.63684674722802 8.609137848272281 -1 0 0
670 1 0.6455365956722852 15.685555061006891 6.187268914226018 1 0 0
95 1 1.9299808420253926 17.809284465866924 8.471174972866294 0 1 0
224 1 6.691409769629313 15.195602763282848 6.8584957633123915 0 -1 2
545 1 4.627963656802884 12.873372453000954 8.748883416065468 0 -1 1
829 1 1.684280485251481 12.493351163969603 8.967611170346107 0 1 1
761 1 6.729656498383795 12.3842997736459 7.108542654461854 1 1 0
644 1 5.176019441901045 14.996513524798248 9.094395797832941 0 -1 1
361 1 2.9226371057390126 13.928056257424993 10.156188738911805 0 1 1
35 1 4.786180639065159 14.001719782057396 6.916674659353303 1 0 0
781 1 6.221666595748034 17.118693818679425 8.119614022930811 0 -1 -1
802 1 5.566022219910542 18.196100381986717 10.065204772081225 1 1 1
15 1 16.126367090016338 0.8515777804523832 5.792435044522581 -2 0 -1
18 1 9.251667760237021 13.69277795292385 6.741848014332977 1 0 0
179 1 10.878668342517791 18.391599642559058 9.390187092870534 0 0 0
648 1 9.381857309240367 17.310442181460868 5.210444677961096 1 0 1
665 1 10.713879883506225 15.602962907762475 6.605960191350812 -1 0 -1
484 1 12.395157414543755 13.555936059853678 9.104614243924365 0 1 0
354 1 8.14949178485621 14.600040768460744 8.640013719890495 1 -1 0
185 1 12.341954822361014 17.508394683832847 6.516323332433553 0 1 0
38 1 8.58197286306927 16.500946744916103 7.221580782731476 0 -2 0
164 1 10.2128094888214 16.359889960556867 8.93544774715562 -1 -1 0
113 1 3.663844283121966 16.64822422538686 10.072633766845414 0 1 0
655 1 13.362346391107197 17.698039510934326 3.8311500660782407 0 0 2
206 1 13.033561980540204 15.192627681150855 7.931855742315486 -1 0 0
507 1 12.960726159039254 12.651494012936304 6.972142532663394 -2 -1 -1
305 1 10.946682765775726 11.184709128804377 8.565531984684393 -1 -1 -1
345 1 14.84658459882624 16.836733373867077 5.685838436000611 0 0 0
657 1 14.549661952857564 15.227875056892861 9.831998921176352 -2 1 -1
254 1 12.667271303085075 16.886491988424957 9.884332082320572 0 0 0
118 1 16.145127414073258 17.024691439083664 8.724536707356906 0 0 0
148 1 15.251940916723841 15.289064274948938 7.3133031972437665 0 -1 0
91 1 16.500591686341586 13.828199813476688 9.557928763348428 0 -1 0
681 1 19.48320350359314 15.668216461247166 5.465708688719071 -2 -1 0
676 1 17.316533594693627 14.72949270456549 5.055576820721873 0 0 0
664 1 21.09035746939702 13.889025247872832 6.079970007163795 1 1 2
303 1 17.356623206476133 15.948416804962882 7.030122417847929 0 0 0
207 1 18.51971885490596 15.175965703596386 8.756996457420959 0 -1 -1
326 1 -0.43210852965947394 14.33418306004673 8.639203273589912 1 1 -1
529 1 18.630402076268616 13.733833422721236 7.056800538265258 -1 1 0
620 1 20.405695471469542 15.642290254390122 7.52935970349696 -1 -1 0
359 1 -0.43414167289851713 16.872324144941427 9.072607452974466 0 1 1
758 1 2.3728598388467907 17.59720991070527 6.127554733391074 -2 0 0
849 1 9.112283736881809 20.475992102385643 7.8883983408891325 -1 -1 0
94 1 1.4549516744534996 21.226559518664306 8.289641762494995 1 0 0
124 1 0.8954091430725482 19.929396589922785 4.9838406264362956 0 1 0
624 1 0.1163472211204426 19.104880171844172 7.640297336917339 1 -1 2
481 1 4.2495356194781015 21.55565342393589 8.675561191323201 0 -1 1
666 1 3.0788789552718576 20.093141118178412 6.86733482046598 0 -1 0
639 1 5.413176642629409 20.193716763867503 5.258146967370669 0 -2 1
372 1 6.725564982534354 19.93912113976355 8.055066557326398 0 -1 1
722 1 15.552177920315316 8.120657306177685 0.2892898731225769 -1 0 0
486 1 3.837521175639333 16.262006244231717 7.024709401742741 -1 0 1
153 1 4.308702569324231 18.477215679639055 7.987296434572656 0 -1 0
252 1 5.2377911867371445 17.732352622364665 5.686043214564307 0 -1 1
314 1 4.211047835297561 -0.0010829218444708966 6.436294307240304 -1 1 0
259 1 5.235235086261397 20.40279085540782 10.549006753015309 1 -1 0
824 1 8.28051423935923 18.07370826817812 9.074544306417643 1 1 1
363 1 8.687750943162753 20.178765658998945 5.450318099530958 1 2 1
757 1 11.82616507937718 20.184281579227648 7.52254758667206 0 -1 0
590 1 7.278102992643254 18.316643694599716 6.3288482718033094 -1 -1 0
28 1 1.3077437328054495 16.15582472283981 10.55614665751515 -2 0 0
418 1 13.421731735293097 7.086731046449739 -0.2959718213637605 1 0 2
768 1 16.987196738221925 4.450562520683446 10.332640173628263 0 -1 0
145 1 14.682945290231787 12.741820877905202 10.61964081023297 -1 -1 1
803 1 7.361810968716623 13.837531906440521 -0.027456211459589763 1 0 1
584 1 11.120778735140984 9.740889310429692 10.407853965546755 0 -2 0
301 1 1.3688559840216363 8.25598872435623 0.15175276082892286 -2 -1 1
186 1 1.4956772262752671 18.47426414826078 10.619059614200482 0 -1 0
84 1 9.447603245170205 10.787861632256238 -0.5191616734168605 -2 1 1
230 1 0.4101717085194796 6.236156689994162 10.611254892978662 0 0 0
589 1 1.556275611506599 3.8603881642311872 12.355579042604571 2 0 -1
608 1 2.5816239510085017 1.1614283515658836 12.064792446241713 0 -1 0
642 1 21.808696786273494 2.1941234307551105 12.785081079570924 0 -1 0
110 1 2.051328576032773 -0.45400949163533016 15.570234953431981 -1 1 -2
358 1 0.8074371436913228 -0.2781261371304542 13.285776883667847 1 1 1
721 1 20.003246283647417 1.7226181047893885 11.14319872262046 -2 -1 -1
183 1 17.3346564127213 18.946569800386605 21.26655482073264 1 -1 -1
394 1 1.1172308049290698 1.6102663564592063 14.537199243061497 0 0 -1
191 1 3.13686743410326 2.845476270221683 14.35433757772418 1 0 -1