LAMMPS data file via write_data, version 29 Oct 2020, timestep = 300000

864 atoms
1 atom types

-0.17783132768589915 21.44183132768365 xlo xhi
-0.17783132768589915 21.44183132768365 ylo yhi
-0.17783132768589915 21.44183132768365 zlo zhi

Masses

1 58.933

Atoms # atomic

8 1 3.4220265466088837 1.7433208541457164 1.6930399067609019 0 0 0
27 1 1.7639110371280633 3.473105364054573 1.8530687158412595 0 0 0
146 1 1.7400002840698994 1.6644681356600948 3.339347883753326 0 0 0
173 1 3.5792089099014355 3.633490876311845 3.4249724231369982 0 0 0
4 1 0.016651728880669264 1.7178223599206943 1.4599931978453486 0 0 0
169 1 21.30393653499999 3.4313561840371336 3.4012058560360017 -1 0 0
3 1 1.700883338318923 21.428548982524475 1.5328621485084297 0 -1 0
45 1 18.072828892749918 3.5271021371226268 -0.13555168571827153 0 0 0
152 1 3.3395859867910125 1.5929973920758553 5.305552189165015 0 0 0
171 1 1.7120937967531693 3.5775817538764283 5.135425595638991 0 0 0
12 1 6.997765054988404 1.7424969164127095 1.8161371252061138 0 0 0
31 1 5.209844965922037 3.749250553515264 1.400429438142918 0 0 0
150 1 5.036836640958873 1.6348120327443194 3.3069399035139773 0 0 0
177 1 6.821027499398936 3.5963602164967226 3.3367258889931035 0 0 0
412 1 21.198628552621166 19.445436912636822 8.844667266181505 -1 0 0
35 1 9.1775806587058 3.408480111905148 1.4850639966218333 0 0 0
154 1 8.786134873893765 1.5524895871604418 3.549207465166352 0 0 0
16 1 10.787191107884492 1.6595855582199743 1.711846725094716 0 0 0
181 1 10.623761975573263 3.249473881907421 3.6327846705332734 0 0 0
158 1 12.5824344397123 1.3812321278046484 3.419995644153983 0 0 0
39 1 12.453466805577053 3.3837382519643593 1.5816393628032805 0 0 0
179 1 8.749685512914404 3.3769504658557525 5.443869828977014 0 0 0
160 1 10.375412070951807 1.4459670375524676 5.432759764712556 0 0 0
157 1 10.871282811097528 21.168082399388133 3.2590909120725993 0 -1 0
155 1 8.62899663139441 0.07364421299936352 5.380575608350673 0 0 0
159 1 12.485238567423657 21.342570783108485 5.256893335576387 0 -1 0
183 1 12.389627831239954 3.481236277263784 5.31012043661903 0 0 0
409 1 21.290301750055242 17.777722075301917 6.965077273023881 -1 0 0
287 1 19.66413652193078 17.679759343090204 5.0911663348236615 0 0 0
20 1 14.454118177454118 1.5364661330615674 1.631596840408125 0 0 0
43 1 16.056612587021533 3.4866896407013446 1.472155535979029 0 0 0
162 1 15.762321412691207 1.8723494667126763 3.3788248620649837 0 0 0
185 1 14.097762514672922 3.446388416341847 3.4658656798392884 0 0 0
161 1 14.149929748759812 21.09226314342782 3.3616786276197477 0 -1 0
187 1 16.069448563540668 3.501007110586754 5.300931709516582 0 0 0
19 1 16.39065611529785 0.14007734028834273 1.540517073195072 0 0 0
164 1 14.08167426072479 1.2590862715408109 5.197856131451799 0 0 0
145 1 -0.07439667189734236 21.31168933545493 3.324267386245739 0 -1 0
24 1 18.03360015958698 1.5865181182717003 1.6242743870835041 0 0 0
47 1 19.536340225661064 3.3969696865112597 1.7450263152027474 0 0 0
166 1 19.729105131572148 1.402134724514009 3.4439602845541404 0 0 0
189 1 17.935261418960437 3.167353361079433 3.471712259286696 0 0 0
191 1 19.628740882534714 3.1733553765667812 5.35798746147699 0 0 0
148 1 -0.1027453980412989 1.8193608857613857 5.052166285380221 0 0 0
23 1 19.819574247447754 -0.07787992030873954 1.8551842927703088 0 0 0
167 1 19.603849388070365 -0.13966174700127273 5.643681277862054 0 0 0
429 1 17.91477942492982 17.896675451688985 6.961930007361686 0 0 0
34 1 8.956520510985907 5.133157884752574 -0.1319104421642556 0 0 0
32 1 3.5626767726872277 5.38352554534286 1.5042950161507411 0 0 0
51 1 1.8715704117946057 7.331787256138044 1.419338044370312 0 0 0
170 1 1.7408596872138147 5.25862891720108 3.3596519259091324 0 0 0
197 1 3.446787174381094 6.895984497166466 3.3955806068374375 0 0 0
195 1 1.620659723387656 6.786718169609561 5.325480930085719 0 0 0
172 1 21.161525593146436 4.901519501502 5.302198185676404 -1 0 0
10 1 8.65261126455795 1.696664651999855 -0.15680641628868672 0 0 0
36 1 6.9807998620283005 5.282566752703299 1.5866061899247872 0 0 0
55 1 5.272251582819218 7.267269547631599 1.603068685530384 0 0 0
174 1 5.356468197748313 5.4807949967925325 3.2475576311216177 0 0 0
201 1 7.012422861079853 7.225069707413504 3.5126965902598677 0 0 0
57 1 6.968051560623464 7.044972089102068 -0.11747663812602427 0 0 0
59 1 8.729064657723981 7.069647981296086 1.654515757767154 0 0 0
178 1 8.874204177290636 4.910587429816678 3.2195883634696654 0 0 0
40 1 10.830824933839287 5.29600623927972 1.6085730373303295 0 0 0
205 1 10.808031481302487 7.169673544909591 3.2246228097217453 0 0 0
182 1 12.28875575746897 5.214393255964995 3.347809508087632 0 0 0
63 1 12.682877293583148 6.932623660747666 1.6467756772056794 0 0 0
203 1 8.90756028210075 6.680978402878188 5.192958247759309 0 0 0
207 1 12.408541882897598 6.71850685342752 5.345814769239465 0 0 0
70 1 19.71384025369241 8.901206413315261 0.0619114458200809 0 0 0
430 1 19.74110814944366 19.455686060319415 7.059406204251651 0 0 0
44 1 14.485804279584418 5.279311576792793 1.624074166802049 0 0 0
67 1 15.885552405306607 7.001968602126625 1.6049847505060495 0 0 0
186 1 15.954582453406777 5.022601567942564 3.328129918461333 0 0 0
209 1 14.577126842029156 7.127776578775435 3.447059806542276 0 0 0
69 1 17.79670863320934 7.254422129219192 -0.12408459555384106 0 0 0
211 1 16.22314140134666 6.907058035580892 5.460097380658354 0 0 0
188 1 14.156364807326451 5.223061019387552 5.539162345975108 0 0 0
28 1 -0.15397837597826225 5.419344182976784 1.8902693390907417 0 0 0
193 1 21.320375460119287 7.126198242736833 3.2161324547997614 -1 0 0
48 1 17.711209301625935 5.375869931704771 1.8181798111770686 0 0 0
71 1 19.644989095192813 7.11473815550257 1.4792894439985633 0 0 0
190 1 19.61979933766547 5.3297214055618305 3.4246529108609236 0 0 0
213 1 17.64418458492449 6.9664341770424665 3.626341226232546 0 0 0
215 1 19.639933160662565 6.8601079906083395 5.18825460229277 0 0 0
194 1 1.588727357249021 8.63033527516914 3.586704889531926 0 0 0
56 1 3.5422267055726784 9.337574739824325 1.9246298671935902 0 0 0
75 1 1.5689111407047012 10.622979011901549 1.782061405820164 0 0 0
221 1 3.2917559885310417 10.831126433020552 3.7162882379213467 0 0 0
218 1 1.6298725582030174 12.452890226775832 3.276257695460837 0 0 0
80 1 3.5732763819604005 12.120952911475204 1.4600574820988024 0 0 0
217 1 21.32430536983582 10.54667492654356 3.3077943538197747 -1 0 0
76 1 -0.1355367012307127 12.393445744239893 1.8471389316913176 0 0 0
200 1 3.537133184018873 8.730697347147293 5.014475989391112 0 0 0
66 1 15.964528572573593 8.767836043409146 -0.1141776478168914 0 0 0
431 1 19.518191984855086 17.695780947402866 8.882435927918086 0 0 0
60 1 7.15944159136646 8.7855878738528 1.3648075556433874 0 0 0
198 1 5.399614435217707 8.84874116185526 3.169606038311299 0 0 0
79 1 5.660615544143306 10.793827093404822 1.3590570842842067 0 0 0
225 1 7.224829111435356 10.55211456948601 3.4798142134630163 0 0 0
84 1 7.0061634991095785 12.431719603154418 1.4696450017527882 0 0 0
222 1 5.300012832697317 12.294806633273748 3.349205628989372 0 0 0
437 1 3.312776992197635 21.162122991832774 10.376105169845294 0 -1 0
223 1 5.365605225450921 10.443418695854998 4.920758383988085 0 0 0
204 1 7.355989780437553 8.653146341292382 5.352816257627908 0 0 0
90 1 15.932254146972186 12.35516981183275 -0.16999634251153795 0 0 0
38 1 12.609087096183483 5.35225303744862 0.022578988334256672 0 0 0
33 1 7.1245811470988505 3.509831908255912 -0.1302742445201446 0 0 0
485 1 3.2085620386755407 7.062784183109121 10.526143590351076 0 0 0
202 1 9.032624316496738 8.741640442112468 3.389947144292772 0 0 0
206 1 12.42659948836887 8.841632917606018 3.3496194447178853 0 0 0
83 1 8.781014947617209 10.606203084093098 1.4738401891474666 0 0 0
64 1 10.652624749027842 8.998717424376164 1.61062707305916 0 0 0
229 1 10.773070551662833 10.60027413201874 3.5952144263062347 0 0 0
88 1 10.768366524495656 12.406015734446724 1.6898569659669522 0 0 0
87 1 12.359774580784956 10.732041740594688 1.4786741172356603 0 0 0
73 1 21.285761728719102 10.790555717786836 -0.14811170096324816 -1 0 0
569 1 14.021616803484116 17.566388202742047 10.560746895160689 0 0 0
41 1 14.300975945618793 3.494764098249438 -0.15915007072575338 0 0 0
68 1 13.930665782231918 8.716820557288358 1.5695338655350468 0 0 0
210 1 16.038142956127636 8.884248154134834 3.390379910425432 0 0 0
91 1 15.760280432474291 10.50524229796329 1.69759495773707 0 0 0
233 1 14.071827419824373 10.788229597375235 3.2147442218216615 0 0 0
92 1 14.42234590919445 12.468388439931694 1.7026533801377133 0 0 0
234 1 16.258014706074725 12.277220059057838 3.6417838922953596 0 0 0
236 1 14.029503906892787 12.530575440834179 5.11406006116674 0 0 0
235 1 15.879670171510478 10.585935204127011 5.346821285906927 0 0 0
432 1 17.80230664423535 19.6559546327182 8.943328331248676 0 0 0
288 1 17.595961434389125 19.501471263616303 5.296192102293403 0 0 0
52 1 -0.08562374093605898 9.026060939406506 1.5646793740902254 0 0 0
196 1 -0.17684231776334514 8.795085540598517 5.090936626254069 0 0 0
214 1 19.703437209206086 8.734249491058268 3.310355349214345 0 0 0
72 1 17.65865357386768 8.589988435173925 1.6953099963866285 0 0 0
95 1 19.729688261159005 10.795808246861112 1.6499324490035738 0 0 0
237 1 17.77693609684983 10.634023521658733 3.5406980561816948 0 0 0
238 1 19.60491461605813 12.507767318963037 3.528009771256578 0 0 0
96 1 17.640479002158308 12.203382244283342 1.766915696246021 0 0 0
240 1 17.830073574547484 12.52059933887544 5.09954487769364 0 0 0
101 1 3.4272763008901066 14.25976457046591 -0.12914116880675758 0 0 0
425 1 14.243028927392881 17.578116503947946 6.996392807011329 0 0 0
99 1 1.6512474831544142 14.091176584681886 1.5514918864923497 0 0 0
104 1 3.4705556770821984 16.196362646791847 1.5764033861040752 0 0 0
242 1 1.6917915207481011 15.899945244495141 3.0960981465949238 0 0 0
245 1 3.477556463115565 14.168116152101215 3.3991678177933293 0 0 0
243 1 1.6582175051703336 14.068592601087452 5.074859476774722 0 0 0
248 1 3.318423152270714 15.848203915641895 5.3313912459039905 0 0 0
426 1 16.07558322485019 19.520783892714178 7.231401608713093 0 0 0
103 1 5.407511845388745 14.006043483460228 1.5663001360654278 0 0 0
108 1 7.015988045225799 16.15801388707674 1.3685120417317058 0 0 0
246 1 5.253325725389729 15.812434530002486 3.493194743407363 0 0 0
249 1 6.884390371945322 13.950857132790329 3.4676878029403273 0 0 0
509 1 3.4656113667615505 10.685910892086929 10.626440830318995 0 0 0
505 1 21.31513662693203 10.623395621436929 10.558043828763994 -1 0 0
230 1 12.232105144070596 12.631285639972754 3.465198088273909 0 0 0
226 1 8.82912785099331 12.101578771218918 3.3486469002151984 0 0 0
250 1 8.521188404489795 16.03324511418208 3.5268227140426447 0 0 0
107 1 8.77618528235069 14.12893278794763 1.5290011165064015 0 0 0
112 1 10.227484343097784 15.853410186237069 1.6464627472657456 0 0 0
253 1 10.40040965984051 14.281057041525509 3.5334173442527765 0 0 0
254 1 12.384516790507783 16.148968182718406 3.360381586997223 0 0 0
111 1 12.30659928449239 14.335691718544853 1.7122710496299625 0 0 0
458 1 1.4972428627251841 5.205345404201635 10.54109324609926 0 0 0
284 1 14.246483411872315 19.589377120362627 5.29399578874472 0 0 0
115 1 16.226285035618332 14.136238293948649 1.8428202561772449 0 0 0
116 1 14.090426658647901 16.054074241247633 1.728535208099044 0 0 0
257 1 14.324022552003594 14.22142163998534 3.5346073950260037 0 0 0
258 1 16.16792204891609 15.985006462694992 3.4220056719107648 0 0 0
241 1 -0.15605069405315614 14.297664302910517 3.300171635242798 0 0 0
100 1 -0.09114999332328579 16.11414799825738 1.4548095261323188 0 0 0
119 1 19.62998562238372 14.26168653425109 1.6061071585742734 0 0 0
120 1 18.08887018315842 15.896769399345809 1.6338519278535104 0 0 0
261 1 18.077550566380964 14.313901304729969 3.528910568299519 0 0 0
262 1 19.65374360650233 16.129780760410426 3.2921272251925386 0 0 0
264 1 18.04463419721496 15.981861067063031 5.270306332294401 0 0 0
263 1 20.06972052524207 14.309639791957968 5.243401524965638 0 0 0
244 1 0.0568980661704617 15.89144218343221 5.1256795076237545 0 0 0
427 1 16.12090065674203 17.75475133640404 8.797191672016307 0 0 0
149 1 3.0866697975434243 21.370677872212987 3.6734395671785935 0 -1 0
123 1 1.4976887552541445 17.899708801067675 1.4684055813971422 0 0 0
128 1 3.364941783263678 19.682049139672856 1.7187953929302449 0 0 0
266 1 1.6041293916795605 19.399368531109694 3.5538916373724065 0 0 0
269 1 3.7522854476077754 17.752046749996325 3.4488773224076006 0 0 0
272 1 3.3210978391130705 19.670366455745807 5.262490579527332 0 0 0
428 1 14.07545326772106 19.48616244138971 8.63555497509329 0 0 0
529 1 -0.15972462096868803 14.337781715168056 10.565388917776646 0 0 0
153 1 6.951115612266513 -0.11918895510428484 3.5171317618919713 0 0 0
7 1 5.281137600951587 -0.16627525302011983 1.6684444695049334 0 0 0
127 1 5.16405556843819 17.89845038339392 1.6381969170050827 0 0 0
132 1 6.988085707681796 19.710478088568934 1.6018062034700982 0 0 0
270 1 5.084154771903175 19.86320267299429 3.401508711565223 0 0 0
273 1 7.114998585148452 17.933267201457596 3.2021835464596196 0 0 0
271 1 5.240970300064115 17.962636379234944 5.249225639424835 0 0 0
151 1 5.055959971384646 21.33984816604478 5.355340524768131 0 -1 0
283 1 16.21713834932526 17.763621083163137 5.08769082268761 0 0 0
462 1 5.002649020942738 5.14146349591054 10.369627971630424 0 0 0
404 1 14.231090566293801 15.911490295440904 8.916948556634463 0 0 0
15 1 12.384716833704468 21.15722489872816 1.6701950076693048 0 -1 0
11 1 8.691727575825556 -0.11816105477399039 1.5617760810899504 0 0 0
274 1 8.85759619355278 19.737338981018404 3.503804496560854 0 0 0
131 1 8.8938856218584 18.046963707660538 1.422848381762647 0 0 0
136 1 10.72736180453883 19.692662905227323 1.346857250744109 0 0 0
277 1 10.42622368074899 17.659018751873 3.471126611460039 0 0 0
278 1 12.236153403760222 19.384300240919934 3.4049021365567356 0 0 0
280 1 10.497993768563747 19.738697813690614 5.173129213072339 0 0 0
135 1 12.073910296733528 17.814605085188262 1.7389415014907241 0 0 0
260 1 14.286197924307908 15.87991146445754 5.201546036334759 0 0 0
403 1 16.01277072122877 14.32415365101747 8.731698111342858 0 0 0
139 1 15.930472741002513 17.785722164395565 1.8564154908674775 0 0 0
140 1 14.18686860014855 19.30724844209191 1.720205483895914 0 0 0
281 1 14.26969219701273 17.62038105851493 3.5510168147152843 0 0 0
282 1 15.94476953920689 19.757388670636786 3.416003238804602 0 0 0
265 1 -0.06219257597909364 17.77817639932124 3.3339496559265918 0 0 0
165 1 17.762395635163884 -0.11775246816342735 3.605947091871358 0 0 0
124 1 -0.12460775521201567 19.7269104101212 1.6679765084324067 0 0 0
143 1 19.730593676787706 18.006490703867755 1.4971455817469492 0 0 0
144 1 17.887080793901838 19.754389478501864 1.6271253645465416 0 0 0
285 1 17.945188093100022 17.811834859296646 3.2275287171229197 0 0 0
286 1 19.598049945223266 19.475220900239464 3.329599888023282 0 0 0
268 1 21.29777456906185 19.600266457111537 5.254538454038353 -1 0 0
421 1 10.532315479643254 17.66145438855977 7.224078623343568 0 0 0
424 1 10.709005007952419 19.573422603590437 9.020536016957186 0 0 0
418 1 8.777486552734274 19.659772013213875 6.760371767306579 0 0 0
290 1 1.4720392960770392 1.597135207925849 6.8612868256922 0 0 0
296 1 3.3687358544016908 1.4786949701400036 8.83743200289395 0 0 0
315 1 1.577589827459122 3.320012605075715 8.923645088713785 0 0 0
317 1 3.3671664382233177 3.458804657617837 6.94489828702703 0 0 0
293 1 3.289843338564077 21.23859523414795 7.002637113955553 0 -1 0
422 1 12.357804028524296 19.5564533382339 6.9875869072192875 0 0 0
313 1 -0.16011552558814657 3.3524591976703495 7.267911135154593 0 0 0
291 1 1.5945234474739356 21.262531832732364 8.70919447253056 0 -1 0
402 1 16.159155035016653 16.09963132182333 6.896294101671195 0 0 0
401 1 14.236583450716553 14.295964471325625 6.950343899932446 0 0 0
175 1 5.181887104314735 3.425177171689269 5.161867701535795 0 0 0
156 1 6.7308609814845815 1.7424509020116365 5.104420210546192 0 0 0
294 1 5.196068584301486 1.802668992404488 6.972816498015169 0 0 0
300 1 6.750084640612443 1.4218666905608641 8.868372649209201 0 0 0
319 1 5.315328722157969 3.395117069708576 8.895396085369867 0 0 0
321 1 7.079981235278564 3.393077876972055 7.074138994605575 0 0 0
295 1 5.093690336110819 21.237802376118808 8.882668384500194 0 -1 0
297 1 6.943012591776532 -0.05150246681492629 7.183507500929576 0 0 0
419 1 8.795801224960424 17.904563681453403 8.738823623274588 0 0 0
298 1 8.58953320403348 1.7483253070775089 7.2057581612913255 0 0 0
323 1 8.639576311379024 3.4921003381414617 8.837647857688182 0 0 0
304 1 10.586331829981727 1.8420745189208199 8.76799046854274 0 0 0
325 1 10.804457595383456 3.433412753744083 7.162475811182002 0 0 0
302 1 12.392260762873521 1.5308197637805925 7.0000177475403005 0 0 0
327 1 12.570056307016035 3.472955506495694 9.000213901932243 0 0 0
259 1 16.12413312799513 14.291305355918517 5.299761534465192 0 0 0
423 1 12.43134752579133 17.882038116672824 8.85619490836969 0 0 0
303 1 12.285342884471381 21.385993455837188 8.731727140353899 0 -1 0
163 1 15.979305688398485 -0.00982275673902458 5.148008919064486 0 0 0
305 1 14.306760304488371 21.30444081599512 7.169298947819641 0 -1 0
307 1 15.878279649679884 21.364245352813946 9.077422209237698 0 -1 0
306 1 15.742561518177073 1.6443308927133031 7.043343859350547 0 0 0
308 1 14.07001199961297 1.6780892863807428 8.934069972964032 0 0 0
329 1 14.318657321039225 3.366794018068281 7.278986163638586 0 0 0
331 1 16.03567733301181 3.4558966441467773 8.866075720063616 0 0 0
301 1 10.633854896860111 21.250722823928548 7.142404331280234 0 -1 0
299 1 8.836496126280313 -0.14348612632183627 8.594216503483889 0 0 0
562 1 8.786966072404276 19.646689491887223 10.447727355480497 0 0 0
311 1 19.62890226004562 -0.1302760700957103 8.88546440588766 0 0 0
309 1 17.782623543881705 -0.023952056275914957 7.278446743376439 0 0 0
289 1 21.36762362990237 -0.1280835321375233 6.993436788684632 -1 0 0
292 1 21.24908797861942 1.5341763383593994 8.854664273661035 -1 0 0
168 1 17.79466496196379 1.5913557891487742 5.407357102298465 0 0 0
310 1 19.597628564671105 1.707992700918592 7.3261290601064 0 0 0
312 1 17.58413105268839 1.5930387344157149 8.961068684760338 0 0 0
333 1 17.725950799000657 3.2675595040082106 7.08084789554768 0 0 0
335 1 19.641752620132905 3.484668734333359 8.81595016392916 0 0 0
407 1 19.68911634629702 14.044172571991295 8.811305692008824 0 0 0
176 1 3.516647754542014 5.431078829138574 5.451082736852059 0 0 0
314 1 1.4610763968892502 5.119413178493084 7.015411059949225 0 0 0
320 1 3.3610900410516695 5.162683032521744 8.6169222615997 0 0 0
339 1 1.4914974833102848 7.012097369430251 8.44137019845179 0 0 0
341 1 3.6131083093685907 7.147603955805054 6.977346388093338 0 0 0
275 1 8.661493799392861 17.78321326768802 5.2226301091543155 0 0 0
279 1 12.084005838089531 17.710001025439738 5.267928607717591 0 0 0
180 1 6.958561542753687 5.323880979911451 5.22581689652847 0 0 0
199 1 5.3854288319210655 7.051397042874509 5.054807137616568 0 0 0
318 1 5.470466726164555 5.388280210466674 6.93498936176082 0 0 0
324 1 7.067525920951752 5.370049291872428 8.838638873820235 0 0 0
343 1 5.133610097812618 6.86853306906161 8.887206234575237 0 0 0
345 1 7.2070742773977035 7.105149133025041 6.9452750119862925 0 0 0
184 1 10.706047446012466 5.139257620494107 5.398719516267052 0 0 0
347 1 8.894969336337551 7.049200709902963 8.853513234838303 0 0 0
322 1 8.819948577298346 5.3346587655881486 6.990554179165648 0 0 0
328 1 10.60528929373493 5.171997155686204 8.753737191681774 0 0 0
349 1 10.499455921654773 7.074317440464334 7.1446367615990365 0 0 0
351 1 12.359393874796224 7.242194476178917 8.936418599788613 0 0 0
326 1 12.552703604410356 5.124095484898987 7.291295457799374 0 0 0
405 1 17.88848911094849 14.106163837103917 6.837845651455609 0 0 0
330 1 16.21950886734743 5.198287429390843 7.254543000333283 0 0 0
332 1 14.529149287005753 5.373121787599051 9.003704185004024 0 0 0
353 1 14.39716446288385 7.171169682493612 7.211062517772262 0 0 0
355 1 16.165866666254104 7.1021980176092585 8.825766743237313 0 0 0
415 1 5.39784242206961 18.13656018786439 8.853163493838462 0 0 0
398 1 12.496928775119427 15.922672981776715 7.126761700002528 0 0 0
565 1 10.822054876996852 17.787295415385586 10.511518003830266 0 0 0
192 1 18.164804825983133 5.007621521688431 5.229747914268546 0 0 0
316 1 21.356608486223955 5.404358295230632 8.985566225036822 -1 0 0
337 1 21.279903261526627 6.979130422521929 7.00955941267188 -1 0 0
334 1 19.54614799403256 5.181974529947597 7.210195094406758 0 0 0
336 1 17.864970918201614 5.281356155626221 9.13959918543479 0 0 0
357 1 18.117034947010545 7.0561428871317355 7.107116405719708 0 0 0
359 1 19.68820900825635 7.023254808962238 8.863889269572656 0 0 0
414 1 5.3151520334693 19.56451265991808 7.064264744243194 0 0 0
219 1 1.6292304275773775 10.675673095007411 4.952482936147766 0 0 0
220 1 21.362389303501658 12.381128661909258 5.183921656076123 -1 0 0
224 1 3.327990215490715 12.417988480036641 5.395953360255986 0 0 0
338 1 1.484745797165348 8.84690214440986 6.75154902368124 0 0 0
344 1 3.3097163280615076 8.820198932932312 8.78136630843942 0 0 0
363 1 1.5482861019572458 10.501678962539119 8.682058604146729 0 0 0
365 1 3.483307835300949 10.397826062241142 6.97333834153499 0 0 0
368 1 3.5063556623335095 12.41272981428636 8.702960582051137 0 0 0
362 1 1.7805577699818824 12.577316679960633 7.027651086979978 0 0 0
417 1 7.205263911807475 17.765290161991352 7.162938840928171 0 0 0
420 1 7.253123105392765 19.581535514036702 8.58797534649559 0 0 0
228 1 7.098927601165977 12.211367529523857 5.027955056814311 0 0 0
342 1 5.273953233181127 8.87159594364497 6.793540831572152 0 0 0
348 1 7.1289558156839155 8.930341675657752 8.682088417610155 0 0 0
367 1 5.133239711656781 10.271429402002642 8.839699236700847 0 0 0
369 1 7.007758496692028 10.603599672552598 6.890642250887047 0 0 0
366 1 5.114727172163325 12.15459853486087 6.861253331857675 0 0 0
372 1 6.801196556536492 12.386807562018937 8.675215530609385 0 0 0
276 1 6.86859873273341 19.519704733663104 5.259023778103873 0 0 0
232 1 10.656044019158612 12.53809888414307 5.322819286310995 0 0 0
227 1 9.007805467789035 10.549914557828874 5.347166467673428 0 0 0
231 1 12.165616094608747 10.533024542058552 5.3527367099583225 0 0 0
208 1 10.880444015826502 8.587412697352626 5.258740182507971 0 0 0
370 1 8.801045231117067 12.600170951122383 7.047906489654146 0 0 0
371 1 8.838484159130441 10.87805113023974 8.66091180291711 0 0 0
352 1 10.553327473051835 8.940911029945605 8.900075700666344 0 0 0
346 1 9.099484155024594 9.084386885633167 7.03153474109366 0 0 0
373 1 10.64496148046662 10.679121160366353 7.243364046584843 0 0 0
350 1 12.467859164179776 9.104410062670093 7.135342593564761 0 0 0
376 1 10.591393659636832 12.427079565194893 8.749363492414576 0 0 0
375 1 12.47357108182599 10.648341498570785 9.20417866416872 0 0 0
374 1 12.568382658017685 12.26615065494875 7.090629589971473 0 0 0
408 1 17.870038385026305 15.896436811661461 8.611537086880166 0 0 0
122 1 1.606885334719395 19.703576338484602 -0.10320682546446774 0 0 0
413 1 3.307895749968941 17.77779290772839 6.917459391415393 0 0 0
406 1 19.54777330312954 15.899925789189437 7.040569461375528 0 0 0
212 1 14.072286805510064 8.97184827820244 5.191019532955722 0 0 0
354 1 16.411459714541152 8.68996296323971 7.041319655431773 0 0 0
356 1 14.336252645252062 9.070535380435668 8.7947893151367 0 0 0
377 1 14.329001456490074 10.45274799291721 7.057098326851128 0 0 0
379 1 16.303377914568642 10.669221569242405 8.55026028568598 0 0 0
380 1 14.337177989775936 12.318750847731264 8.962913374967144 0 0 0
378 1 16.045370307504875 12.46051135272264 6.9480862028831964 0 0 0
410 1 1.5656906311277772 19.56901901282052 6.836743684641463 0 0 0
395 1 8.628262897282182 14.394290325555968 8.878407229212906 0 0 0
385 1 -0.1729831899743201 14.324292259023311 7.076676910936722 0 0 0
216 1 17.613999837057754 8.824623723511955 5.160512321918568 0 0 0
364 1 0.15912507507804013 12.379480016536277 8.899723519085939 0 0 0
361 1 -0.07842973623249541 10.847002116676911 6.958591615867764 0 0 0
239 1 19.786724663965764 10.843384032720547 5.131478692783942 0 0 0
340 1 -0.09492495725930894 8.904713260070894 8.363524624436746 0 0 0
384 1 17.970419246501997 12.317688548744577 8.69755299293993 0 0 0
360 1 17.922939838184206 9.122094169483155 8.751154706312493 0 0 0
358 1 19.564941813200043 9.035542100474348 6.865381602983848 0 0 0
381 1 17.867331430205105 10.729339810001388 6.835774044936359 0 0 0
383 1 19.817175529790028 10.788630173245824 8.697535916277543 0 0 0
382 1 19.78627875729886 12.675184879966235 7.071421744097732 0 0 0
411 1 1.5528040741918774 17.84823308658701 8.542158079718515 0 0 0
416 1 3.358629683472201 19.45667238746239 8.566474453481966 0 0 0
386 1 1.466423613765228 16.12245775946336 6.972417785374769 0 0 0
387 1 1.899244165094466 14.466990061343044 8.83296418589155 0 0 0
389 1 3.6482280135844123 14.022491404215364 6.895007297479572 0 0 0
392 1 3.3995149042664945 16.207826968075636 8.936932449199741 0 0 0
147 1 1.3508670320665308 21.267087847916116 5.212214145180041 0 -1 0
388 1 21.385013147236712 16.186135837315156 8.823581671529391 -1 0 0
247 1 5.308647214145281 14.20940622892682 5.121092845871828 0 0 0
252 1 7.028588846457561 15.98853732726739 5.3901618590182965 0 0 0
396 1 6.860441592519609 16.059979017503807 8.740903653015112 0 0 0
393 1 6.9431337743232735 14.123338620117078 6.879926945050053 0 0 0
391 1 5.168908880046555 14.145217908491851 8.826831840251788 0 0 0
390 1 4.9719881443700835 16.125828210194136 7.0147416030724905 0 0 0
400 1 10.64208207555919 16.123350330584707 8.882373546321901 0 0 0
267 1 1.6448480151784046 17.621433192620763 4.981767885457776 0 0 0
251 1 8.593674236443093 14.167722089070232 5.0844823071199565 0 0 0
255 1 12.448790099834953 14.259746483189055 5.233158345013042 0 0 0
256 1 10.498647885309992 15.928656754386234 5.4241293762749585 0 0 0
394 1 8.67279928759625 15.931008977717154 7.1652086398925405 0 0 0
397 1 10.603491370707117 14.060424383399964 6.952368472127981 0 0 0
399 1 12.397456824501196 14.100746583019612 8.919099196846318 0 0 0
446 1 12.200914536265635 1.632860369967674 10.568473824445833 0 0 0
538 1 8.683567344107974 16.140254038114584 10.50181719259412 0 0 0
482 1 1.533441918719661 9.111411458066772 10.451654120728186 0 0 0
498 1 16.08333681949317 9.081126413672195 10.48511006129074 0 0 0
506 1 1.7648397782986316 12.387524760816598 10.582249435988023 0 0 0
489 1 7.0258649387347685 7.236386942857819 10.393593755510441 0 0 0
142 1 19.598596894360668 19.758274506832343 -0.0002925925912933003 0 0 0
453 1 17.787820180026294 21.369997169533278 10.533035616306533 0 -1 0
514 1 8.921631169067663 12.489056483688309 10.577296596609605 0 0 0
537 1 6.888508709191371 13.925538149787533 10.550932731030793 0 0 0
522 1 16.277764700231565 12.478402534903935 10.40908287788181 0 0 0
138 1 16.158683482404726 19.55370743923207 -0.1419081057990955 0 0 0
470 1 12.513860378399835 5.295750570095767 10.451982112985794 0 0 0
466 1 8.76218330045081 5.052370311114517 10.468926483002807 0 0 0
137 1 14.54718014777267 17.66387670474581 -0.060211652116571895 0 0 0
513 1 7.063330154073692 10.743508074625154 10.604051354330927 0 0 0
502 1 19.68103167875558 8.78114533451865 10.338973465778961 0 0 0
486 1 5.12244605139157 8.746280458872059 10.456928427514432 0 0 0
481 1 -0.09885828654636408 7.23627675727638 10.561642304923069 0 0 0
549 1 17.727318407267973 14.322995440514697 10.596332254654257 0 0 0
546 1 15.981749117635113 16.059803249083977 10.25288662255524 0 0 0
126 1 5.112025931512209 19.838993336733616 0.04521836075229632 0 0 0
29 1 3.558500788583915 3.4253414230922057 -0.170934807839738 0 0 0
457 1 21.333210328585565 3.1415712021645503 10.49495826087236 -1 0 0
554 1 1.5568481647799963 19.43773908887629 10.459748706274752 0 0 0
17 1 14.307542686375434 -0.08499512583239066 0.03029581123111444 0 0 0
525 1 18.161276786972586 10.823329526934844 10.631215567160654 0 0 0
110 1 12.284253424674468 16.054154846899173 -0.0801077583036209 0 0 0
570 1 16.046010224530697 19.539607567666458 10.530325301757443 0 0 0
14 1 12.47994578033086 1.4736443115366937 -0.14191433789492777 0 0 0
445 1 10.503022048552516 21.435393062412004 10.558455729586697 0 -1 0
114 1 16.19558948164758 15.966912447048822 0.2884578301484697 0 0 0
49 1 21.363556265658524 7.121539140136145 -0.11681695864693187 -1 0 0
46 1 19.66921281324438 5.350901056707267 0.13382404805577042 0 0 0
433 1 21.421354788066296 21.323140804981698 10.394072758428042 -1 -1 0
141 1 17.754690269037738 17.6314649952759 0.09575168700084163 0 0 0
125 1 3.4732846988939263 17.859565420060086 -0.14856315054050995 0 0 0
93 1 17.91958740488272 10.556207169504727 -0.1255822706222216 0 0 0
449 1 13.901769328088063 21.290852608623048 10.542088051094485 0 -1 0
450 1 15.823529564899575 1.4886576567094894 10.57875421325111 0 0 0
442 1 8.78720999443959 1.6415446500533448 10.439369447514347 0 0 0
113 1 13.926709823039477 14.33999510719688 0.06727790936342318 0 0 0
465 1 6.846393090537569 3.5100352678378934 10.472053538474663 0 0 0
25 1 -0.10299417062201478 3.714992144018011 0.22550774556368353 0 0 0
13 1 10.423790194280539 0.019166141328033015 0.03918896677256531 0 0 0
61 1 10.730079184433905 7.100447101829718 -0.11098180423569619 0 0 0
98 1 1.6571931930630692 16.11631389395874 0.01418309502699347 0 0 0
97 1 21.370842637707938 14.017367344958961 -0.07689364661624044 -1 0 0
134 1 12.659750371309773 19.655812897307918 0.03134173830672177 0 0 0
26 1 1.8933031752367802 5.2920667932862 0.05480548547913369 0 0 0
534 1 5.048605311530774 16.080391784289233 10.616526660047438 0 0 0
102 1 5.223475806771386 15.783844763922415 -0.1440849261696897 0 0 0
89 1 14.068882478788284 10.865043075117647 -0.1585395368183029 0 0 0
530 1 1.7032828722823972 16.250954587386353 10.609238618940333 0 0 0
18 1 16.426608605661883 1.6459939686301415 -0.17047281133046255 0 0 0
440 1 3.3628438056179406 1.5949486810044509 12.27965912593608 0 0 0