LAMMPS data file via write_data, version 29 Oct 2020, timestep = 300000

864 atoms
1 atom types

-0.17193458749788348 21.43593458749469 xlo xhi
-0.17193458749788348 21.43593458749469 ylo yhi
-0.17193458749788348 21.43593458749469 zlo zhi

Masses

1 58.933

Atoms # atomic

8 1 3.419247753128184 1.675982144099224 1.4587563236101546 0 0 0
27 1 1.6223887486485422 3.358236638783678 1.5908838991398953 0 0 0
146 1 1.5373950767156972 1.5926316301147387 3.4897397999372517 0 0 0
173 1 3.4148667548982874 3.677739976406232 3.2623428612651733 0 0 0
171 1 1.4607946440461712 3.3997839328721318 5.069792039211561 0 0 0
152 1 3.217235523286262 1.7011608353918988 5.216138912255863 0 0 0
574 1 19.621065503632824 19.745478286840928 10.619992344779723 0 0 0
29 1 3.423271009552701 3.1703051312216224 -0.1573729305777886 0 0 0
12 1 6.937426006243641 1.6635127584194047 1.7474351828540144 0 0 0
31 1 5.268615723825761 3.2757218083843855 1.5885830206470544 0 0 0
150 1 5.208135169594196 1.5397947489623782 3.4982072886014537 0 0 0
177 1 7.189219484187544 3.3969908226487076 3.5387220095684637 0 0 0
156 1 7.054559465125929 1.6875176537818317 5.275663084623138 0 0 0
153 1 7.396567666916374 21.367400987227107 3.6385056994802407 0 -1 0
175 1 5.1771109893559535 3.338035426446843 5.397901061929324 0 0 0
287 1 19.796384425147004 17.952315230473438 5.188508009616211 0 0 0
35 1 8.841218166949718 3.1115858424205056 1.880212317541992 0 0 0
154 1 8.81105440348637 1.5302722243061637 3.6980433187795705 0 0 0
16 1 10.63908133032337 1.4043240615924886 1.7983621619069952 0 0 0
181 1 10.764787778099182 3.4844329768522595 3.418697948803886 0 0 0
39 1 12.45150568732088 3.2057400701158763 1.7062086600666904 0 0 0
158 1 12.44774145342458 1.6980335782531217 3.4414458950514484 0 0 0
15 1 12.416928181231176 -0.07783529536234468 1.552165151517989 0 0 0
155 1 8.824114905215643 21.31102665802948 5.302261968203762 0 -1 0
183 1 12.562827584631815 3.3952670429168728 5.284781079287509 0 0 0
160 1 10.78600759571237 1.5819117885805103 5.262436158197722 0 0 0
20 1 14.468101855046749 1.289200917190878 1.3686324410150201 0 0 0
43 1 15.949726764085366 3.52627179746572 1.683312054604531 0 0 0
162 1 16.00597521433092 1.7202686480306462 3.3824471441837574 0 0 0
185 1 14.199030673758772 3.341290436443013 3.4552739262434886 0 0 0
164 1 14.211486826611118 1.4453575489881731 5.3252607453017635 0 0 0
163 1 15.791954286447968 21.10612393842502 5.14775211070255 0 -1 0
187 1 16.04294830820849 3.351012910632924 5.198229002585244 0 0 0
432 1 17.712968663848876 19.800161398381793 8.743285593787013 0 0 0
4 1 21.208764841698837 1.6057948787109102 1.556121883183389 -1 0 0
169 1 -0.1705356197182084 3.171580973527021 3.4866814961163612 0 0 0
148 1 21.36881394537956 1.4942125981643641 5.3708032394826075 -1 0 0
24 1 17.611668244285678 1.393832282232179 1.7804412470688271 0 0 0
47 1 19.50334775859788 3.1100907993942037 1.7962870676938538 0 0 0
166 1 19.503630433425734 1.5085173604834612 3.504401567777315 0 0 0
189 1 17.585153707857135 3.2077295997190345 3.6086215840032185 0 0 0
191 1 19.783142050683036 3.2812280421527 5.501016652418825 0 0 0
431 1 19.80126601373937 17.806342899644395 8.663214152490951 0 0 0
165 1 17.919273294238142 21.427477572952217 3.5606700458550007 0 -1 0
22 1 19.375013152462376 1.4527084586210042 -0.10039569872509982 0 0 0
32 1 3.5324288066569736 5.3384869049950145 1.6271251968132712 0 0 0
51 1 1.4636675776489443 6.965807900225755 1.6995405839174607 0 0 0
170 1 1.4622985165371094 5.119016488432421 3.4096881322969796 0 0 0
197 1 3.1137125114805206 6.911828844155145 3.5306561304692328 0 0 0
36 1 7.1655338927959304 4.829392105282124 1.5878269511331102 0 0 0
55 1 5.195207874560642 7.10724651435207 2.0109353888902186 0 0 0
174 1 5.205893689882927 5.1231543410286875 3.4807166851973816 0 0 0
201 1 7.200872668953034 6.945032479619728 3.329156430398662 0 0 0
180 1 6.880842450149206 5.322611872782401 5.26001839658846 0 0 0
430 1 19.725650201494805 19.73640467022859 7.100327782410742 0 0 0
59 1 8.775500280774851 6.956732516695796 1.479062958694128 0 0 0
178 1 8.931565802464986 5.056440110281915 3.393634773018986 0 0 0
40 1 10.366273102848083 5.153372268835069 1.4543870948120192 0 0 0
205 1 10.41002431830619 7.020469207667649 3.2793630184487164 0 0 0
182 1 12.194341505904877 5.264007539429927 3.3522830206116656 0 0 0
63 1 12.294467843112752 7.045108057505657 1.6082252272701316 0 0 0
184 1 10.571869714446668 5.310804361831884 5.34762782744083 0 0 0
203 1 8.742732236868072 7.06096231117013 5.060831887038151 0 0 0
207 1 12.238088419274314 6.95546623235059 5.328758459204736 0 0 0
44 1 14.096656654356151 5.31102200426853 1.880027239707128 0 0 0
67 1 15.956007473263874 6.976089898744893 1.6322688577998645 0 0 0
186 1 16.220724278403985 5.3280725406032525 3.421011593057266 0 0 0
209 1 14.003571742215344 7.177545687725091 3.439628819291822 0 0 0
211 1 15.920682785653565 6.982612784636198 5.040912333862921 0 0 0
188 1 14.203177615300245 5.223463421355149 5.020097493845836 0 0 0
28 1 21.20418869005196 4.981229053987029 1.7260737205677126 -1 0 0
193 1 21.166598253309527 6.820110689487757 3.5111139112322274 -1 0 0
48 1 17.991179585439127 5.223527244552697 1.7384970134365647 0 0 0
71 1 19.856584032934638 7.024406054021172 1.647169743338612 0 0 0
190 1 19.579776286795568 5.061884326430183 3.557072083215858 0 0 0
213 1 17.887771126711257 7.131147589227885 3.139695043129965 0 0 0
429 1 17.934802376321297 17.890419971240135 7.059182688887167 0 0 0
194 1 1.5129393700396883 8.78564424194039 3.310022809909183 0 0 0
56 1 3.2596985961935117 8.769522357803849 1.671373242725637 0 0 0
75 1 1.6867044236650646 10.777792173770374 1.2563082669457983 0 0 0
221 1 3.056933203377901 10.66993390334178 3.4502687912071774 0 0 0
80 1 3.5816262646751835 12.566829613508734 1.6301839276128618 0 0 0
218 1 1.3012079257163909 12.680489705247096 3.2647095598125357 0 0 0
217 1 -0.030440542690179984 10.530187901603377 3.082305040756632 0 0 0
219 1 1.5665941825847045 10.570722888484747 5.424187395095078 0 0 0
409 1 0.04038329209697772 17.830632248919184 7.058280906575771 0 0 0
117 1 17.901473054883482 14.272216807251016 -0.15065350166543776 0 0 0
198 1 4.843732078614155 8.94756846699851 3.561446275402374 0 0 0
60 1 6.8674576423925435 8.597557587174029 1.6061467624926988 0 0 0
79 1 5.105853663841324 10.543305361070276 1.926666977971001 0 0 0
225 1 7.11879582967452 10.708387690888895 3.366577260636584 0 0 0
84 1 7.019909587059298 12.537460704211098 1.4483467897638502 0 0 0
222 1 5.193480116164187 12.36608613676185 3.533108022186819 0 0 0
223 1 5.240453877448514 10.735571432694796 5.064477552538509 0 0 0
228 1 7.160763735287038 12.690375710347201 5.375617228714866 0 0 0
202 1 8.875496299198765 8.84003043417625 3.2761145186625953 0 0 0
64 1 10.591732602166728 8.57174090363108 1.6243713400590702 0 0 0
83 1 8.863497313527056 10.641810372889967 1.714091479800571 0 0 0
88 1 10.5634635084127 12.36128063874384 1.5564512650982938 0 0 0
229 1 10.657355253532176 10.607091095350212 3.300489172150155 0 0 0
226 1 8.847173620650475 12.642168100574656 3.091414431270212 0 0 0
206 1 12.24037543461082 8.769152820035368 3.2124665159157884 0 0 0
87 1 12.536000056741361 10.438618537422922 1.5994315897481326 0 0 0
230 1 12.48819332065635 12.379333129072604 3.109846049235562 0 0 0
208 1 10.660448965406417 8.910922749104548 4.923982812179347 0 0 0
232 1 10.614120146856678 12.397082704823521 4.844056661068772 0 0 0
53 1 3.457129261358601 6.810229062496949 -0.11474422550071711 0 0 0
412 1 -0.01795555928398579 19.732221850491246 8.920461692179948 0 0 0
68 1 14.081855855984864 8.671508346448348 1.5170216518158355 0 0 0
91 1 16.274401675844953 10.72182516540789 1.5786073750728444 0 0 0
210 1 16.161245958367036 8.785811941359803 3.161892467425927 0 0 0
233 1 14.394650506930915 10.598385642869308 3.426748104475657 0 0 0
234 1 15.962315256990216 12.588552947494891 3.450438172849935 0 0 0
92 1 14.325298956170194 12.391223904557936 1.4586106680825186 0 0 0
235 1 15.932795632584114 10.469931643283958 5.298664336873329 0 0 0
212 1 14.023053571517057 8.62502099795588 5.470300800378846 0 0 0
283 1 15.90058862679344 17.917242899968855 5.274591350951295 0 0 0
76 1 21.35239321188286 12.658585954784657 1.3216312474057241 -1 0 0
52 1 21.298095739857377 8.703033197742428 1.639108563435815 -1 0 0
72 1 18.01317853120895 8.771615805027151 1.2884392692800193 0 0 0
95 1 19.70190810974101 10.636709959851853 1.3595135807110263 0 0 0
96 1 17.9977651297484 12.517993344303495 1.769280572564794 0 0 0
214 1 19.620311668350475 8.809364149360592 3.4625100679772682 0 0 0
237 1 17.675373259829012 10.561599468585682 3.43864411605092 0 0 0
238 1 20.01553631821193 12.431536079533881 3.5020132595375753 0 0 0
78 1 5.035560186215252 12.345340210838144 -0.04490939883819564 0 0 0
69 1 17.913650827943375 6.93188318599756 -0.009666795347559681 0 0 0
284 1 14.19430316440698 19.4419455769587 5.141078112134415 0 0 0
99 1 1.6511107193328352 14.324924565546034 1.5274798504127978 0 0 0
104 1 3.6358312558338866 16.22539773228432 1.5077963409554604 0 0 0
242 1 1.60870196004144 15.995765678144938 3.529676723915653 0 0 0
245 1 3.405348892119181 14.490610575690484 3.348045212948581 0 0 0
248 1 3.6567790113990597 16.003953423261542 5.141908745452418 0 0 0
241 1 21.389457534776927 14.54721077582258 3.4428628777277455 -1 0 0
428 1 14.299314230590642 19.761916995029395 8.762935298634794 0 0 0
103 1 5.2061294894718655 14.422990929327907 1.4398587829718612 0 0 0
108 1 7.13932523851778 16.135024878713573 1.7357228250722534 0 0 0
246 1 5.3249917387808425 16.097447445361404 3.388322955815897 0 0 0
249 1 6.962210450728171 14.226326038581467 3.3470284185813526 0 0 0
252 1 7.170008202125192 16.0515918834052 4.980604092814607 0 0 0
247 1 5.320389580508063 14.235005942659528 5.124041417682074 0 0 0
107 1 9.070116039941523 14.469454703100821 1.6029869811498483 0 0 0
250 1 9.061829742635648 16.077303731657704 3.3180399069896396 0 0 0
112 1 10.544937057444228 16.22650616779026 1.4616468275189969 0 0 0
253 1 10.622918954932526 14.38068909505676 3.5410803010901124 0 0 0
254 1 12.297380634382026 16.13553499772086 3.662960920660614 0 0 0
111 1 12.094056937309075 14.165615615369553 1.3826918813998978 0 0 0
256 1 10.770086751326774 15.962833285987053 5.375832005846127 0 0 0
255 1 12.458749102796961 13.851090806301448 5.000659496755657 0 0 0
38 1 12.442584283326587 5.265214705361457 -0.06572316531470741 0 0 0
18 1 16.22681861336401 1.4735689002062273 -0.033995376733513216 0 0 0
115 1 16.1002795627304 14.2393504889381 1.4940598746865252 0 0 0
116 1 13.974740078326311 16.147866490592712 1.5873789304571158 0 0 0
257 1 14.240425852416363 14.360179331582813 3.2321750597214134 0 0 0
258 1 16.016294825178097 16.248693956941942 3.415779108695207 0 0 0
259 1 15.991536864313453 14.214628979827307 5.184072609490241 0 0 0
113 1 14.31578307458661 14.101985436043606 -0.11453590682998338 0 0 0
41 1 14.285876929775615 3.524748933512963 -0.08181659954182781 0 0 0
100 1 -0.1632960185795937 16.28755627121126 1.5026477579821569 0 0 0
119 1 19.63975078194005 14.399495623132188 1.4526462655362886 0 0 0
120 1 18.03988147629841 16.10321712376969 1.738765143543879 0 0 0
261 1 17.943655872462614 14.251678359880945 3.3255402100354363 0 0 0
262 1 19.570266247262254 16.01807184989131 3.4708686570587566 0 0 0
263 1 19.79695885167032 14.17853341578543 5.240011371311603 0 0 0
3 1 1.6131031549108898 0.02205475202486354 1.55641124138926 0 0 0
145 1 -0.12527710459195163 -0.11522142587746151 3.587572068961446 0 0 0
81 1 6.835555408010873 10.481219650143561 0.11549610439610292 0 0 0
449 1 14.199896773790805 21.28293219627224 10.565966303730729 0 -1 0
149 1 3.4315553574673836 -0.02847918896825069 3.187091764641014 0 0 0
123 1 1.6679719517197675 17.7997876502549 1.4064471611304792 0 0 0
128 1 3.395562324579174 19.670474996150734 1.502177484623162 0 0 0
266 1 1.7727058596855603 19.688529489197347 3.070759447987382 0 0 0
269 1 3.224611306456099 17.762915433773298 3.3123974246264543 0 0 0
265 1 -0.1031191976344223 17.669568312551746 3.3043413948872247 0 0 0
268 1 -0.054065586672787255 19.544140976416937 5.163647559496166 0 0 0
7 1 5.3083756032874785 21.253487253050825 1.5859954132067389 0 -1 0
570 1 16.181204944351602 19.731903115431024 10.552597885452412 0 0 0
127 1 5.200178906529804 17.96713193597497 1.705189998949392 0 0 0
132 1 7.1214995592341745 19.847124416674887 1.5800227347474032 0 0 0
270 1 5.394273810003624 19.74325016858837 3.5409372615784735 0 0 0
273 1 7.026193225362972 17.914159588067776 3.385509170143278 0 0 0
45 1 17.84343997319823 3.205622439768942 -0.09698283396970002 0 0 0
11 1 8.841157308770788 -0.15643187595970937 1.769464674562402 0 0 0
157 1 10.806359093655336 0.0381159315723201 3.5955103913744653 0 0 0
274 1 8.81039747299294 19.63110492907763 3.641923660487026 0 0 0
131 1 8.867677404498448 18.050949239492997 1.6503141939940176 0 0 0
135 1 12.615093338614056 18.353486081834816 1.70298139536121 0 0 0
136 1 10.459547279068738 19.800071427331673 1.7183797639922325 0 0 0
277 1 10.681337122454881 17.95070181942135 3.669852019803707 0 0 0
278 1 12.291882252045076 19.899070049921516 3.6194041621781445 0 0 0
161 1 14.278029071347461 -0.17111422239732121 3.368715402052108 0 0 0
19 1 16.18624844464857 21.25703810198076 1.3589067777258719 0 -1 0
427 1 16.139647613827357 18.017397923548117 8.944094128290084 0 0 0
139 1 16.25150921216167 18.00491097951035 1.5667381333697101 0 0 0
140 1 14.382052017484371 19.76422028602731 1.6029916528279853 0 0 0
281 1 14.270241217600933 17.850149213679966 3.410052597352447 0 0 0
282 1 16.26546721990026 19.707019342484678 3.3800167076837764 0 0 0
426 1 15.974608684510315 19.91957597561585 7.09089255553206 0 0 0
23 1 19.824414305323785 -0.15705047008234366 1.631200013404177 0 0 0
425 1 14.306478786260797 17.611215094405065 7.232585246563346 0 0 0
124 1 -0.023967455001807636 19.654368459856734 1.728987463342335 0 0 0
288 1 17.679341735235116 19.65777694624629 5.369099602052912 0 0 0
143 1 19.769792971370403 18.02480799825468 1.8734619268891137 0 0 0
144 1 18.11996189140861 19.870996141114702 1.564806263160831 0 0 0
285 1 17.880215811744012 17.856423486367312 3.51203105678435 0 0 0
286 1 19.891434271670594 19.74265283972526 3.5145433833246487 0 0 0
167 1 19.875593043576536 21.377588710186323 5.194060915670425 0 -1 0
505 1 21.31846631861194 10.690881993530786 10.583191009798274 -1 0 0
290 1 1.5619900405417537 1.4197625666871045 7.042779514351183 0 0 0
296 1 3.3172592086975263 1.656999065878694 8.887768831155176 0 0 0
315 1 1.6719481794043882 3.215167969514895 8.981606550148463 0 0 0
317 1 3.1371435745871095 3.3674011682514577 7.043739895625167 0 0 0
292 1 -0.12544417894890653 1.7023370189785665 9.029329639460508 0 0 0
289 1 -0.09299027583405448 21.43236721360547 7.085282057355533 0 -1 0
313 1 -0.09566313925839702 3.4748429530506066 7.247178765047107 0 0 0
293 1 3.21375589841422 21.41332772601053 6.97928758835112 0 -1 0
291 1 1.6713723231926692 -0.16632108088905714 8.75905750392405 0 0 0
42 1 16.227850224655743 5.320567451274896 -0.04233823216317506 0 0 0
66 1 16.062676679172863 9.03414149690403 -0.1451670970195834 0 0 0
307 1 16.01308975403857 0.07240922564063268 8.951770634961282 0 0 0
151 1 5.044718554919099 -0.08536519986479388 5.280442200945132 0 0 0
294 1 5.143386718108385 1.5060302359066133 6.937514561892206 0 0 0
300 1 7.1746055906249735 1.575227650544392 8.928475020267186 0 0 0
319 1 5.309847067716152 3.026737380233146 8.895990325662998 0 0 0
321 1 7.105065184406607 3.2691399892637913 7.131798077703861 0 0 0
295 1 5.281001451108314 21.35058186767396 9.108483248704204 0 -1 0
297 1 6.843149964489612 21.342079744840614 7.062934526086967 0 -1 0
458 1 1.4376604938097644 5.284636095118323 10.49603734627593 0 0 0
30 1 5.308254977670219 5.035396819638006 -0.03563446502250689 0 0 0
179 1 8.968483854956427 3.3676706629647892 5.177800565647741 0 0 0
159 1 12.593098078288666 21.43436707046951 5.29603838860995 0 -1 0
299 1 8.868284401232847 -0.15215884882467015 9.031017276115175 0 0 0
298 1 8.655353388746951 1.4817558470923589 7.15826338849683 0 0 0
323 1 8.869416460806534 3.2943066209940604 9.12430500520738 0 0 0
302 1 12.312748541992939 1.567814766577968 7.218609279310408 0 0 0
304 1 10.49751716723343 1.5040855428248348 8.652696154283161 0 0 0
325 1 10.346076987583384 3.1876390993639485 7.190643429388758 0 0 0
327 1 12.484416469582596 3.474146896588548 9.019938453898058 0 0 0
421 1 10.540105298671547 17.992969722350605 7.102542722249172 0 0 0
305 1 14.140333116670405 -0.08208140601235334 7.243802368662042 0 0 0
306 1 15.953195369829562 1.6351687476276742 6.889587848475161 0 0 0
308 1 14.379390825508446 1.7995011302315322 8.888058101342027 0 0 0
329 1 14.33060689283766 3.557106684922473 6.884002871052668 0 0 0
331 1 16.135725199367595 3.432297583387618 8.865230347444376 0 0 0
26 1 1.6245683091665637 5.216595301480106 0.0067442267849791016 0 0 0
311 1 19.654701372875937 0.07129730031428674 8.8257397223464 0 0 0
309 1 17.88234368807222 -0.07148756588308333 6.784179719179075 0 0 0
168 1 17.873068655186593 1.4889111250899867 5.078138464012211 0 0 0
310 1 19.45050585809234 1.6786036078909412 7.125756602993945 0 0 0
312 1 17.68819608709968 1.623110198717831 8.775736881300123 0 0 0
333 1 17.89645209720792 3.41778132086597 7.184707218508883 0 0 0
335 1 19.537576769749858 3.3709126091445554 9.199701362090847 0 0 0
569 1 14.272222963417732 18.033429032402324 10.49833913947878 0 0 0
195 1 1.5411435481771532 6.955865486724155 5.450578609265624 0 0 0
176 1 3.2951919036661765 5.091781571431547 5.173990823913869 0 0 0
314 1 1.6030273492226466 5.078126100575037 7.342690306763099 0 0 0
320 1 3.411407403805976 5.051860399402352 9.083175915045432 0 0 0
339 1 1.3798248621834264 7.159768584521009 8.74196008711805 0 0 0
341 1 3.3683077605342517 6.665436533198483 7.331402265145734 0 0 0
301 1 10.572591481550763 21.30923047633 6.952205727961025 0 -1 0
199 1 5.072843202633457 7.107436670293345 5.111776208776749 0 0 0
318 1 5.251196481164107 4.830391064645215 7.199816235592932 0 0 0
324 1 7.138199804081774 5.069037075902196 8.963832314276138 0 0 0
343 1 5.398283165634697 6.860185066593779 8.98111172864218 0 0 0
345 1 6.895325731979347 6.898802622452748 6.910545013490537 0 0 0
423 1 12.412305062840465 18.018284716963073 8.808603734406454 0 0 0
303 1 12.295875367721345 21.42070866643991 9.041101226341892 0 -1 0
271 1 4.9935536124908015 17.841217801646945 5.240480931509917 0 0 0
347 1 8.857821850853624 6.9796991978532645 8.527258598833726 0 0 0
322 1 8.866554330800984 5.284854546653259 6.895337220171191 0 0 0
326 1 12.426595103258535 5.098282578827409 6.9703986490220124 0 0 0
328 1 10.683869321470159 5.222574505597894 8.731474568515006 0 0 0
349 1 10.532649810751398 7.344082161359765 6.907149278371316 0 0 0
351 1 12.708412012720464 6.98690953320062 8.717386998904155 0 0 0
419 1 8.909360424512576 17.859851808704427 8.804337536994252 0 0 0
350 1 12.291332601695721 8.94124423653702 7.083256033483591 0 0 0
330 1 16.007616495463456 5.2931632344829005 6.909106152499549 0 0 0
332 1 14.259975655203982 5.196008394251486 8.819277651376845 0 0 0
353 1 14.194628204900038 6.884676700445682 6.887708852654283 0 0 0
355 1 16.010935428810843 7.0226415674904485 8.91834171626513 0 0 0
172 1 -0.10271797484707605 5.111697833471397 5.1990385920695195 0 0 0
557 1 3.235203000777143 17.79272970612298 10.588840637047019 0 0 0
215 1 19.671853540154924 7.010752640316535 5.245666256442537 0 0 0
192 1 17.86166240786817 4.9984360414838545 5.275997530434284 0 0 0
337 1 21.36448942157819 6.853540801503567 7.019982409339721 -1 0 0
316 1 21.049048598318013 5.116482505105716 9.105895309450238 -1 0 0
334 1 19.63631084422139 5.195219951140781 7.220785572928251 0 0 0
336 1 17.862554211589853 5.2481995929231235 8.925287846111408 0 0 0
357 1 17.852654268036403 6.956265096859166 7.136845436547329 0 0 0
359 1 19.581741595675734 7.121985820717324 8.895765372734239 0 0 0
200 1 3.056630690864 8.661878554724915 5.259016401230734 0 0 0
224 1 3.225570075420262 12.635042228727194 4.919422584429983 0 0 0
344 1 3.3577060329785264 9.05593738696093 8.60231879060136 0 0 0
338 1 1.3791678435964698 8.8411646271872 7.042912174204097 0 0 0
363 1 1.416490820397168 10.711457853668492 8.650699383093146 0 0 0
365 1 3.361636621985748 10.715016139158829 6.805915937152076 0 0 0
368 1 3.3657601109791075 12.105418775804418 9.026767006018456 0 0 0
362 1 1.528172831339322 12.45888625353454 6.897900677117 0 0 0
220 1 21.385519840225367 12.362387300846946 5.260727530451118 -1 0 0
364 1 21.28201935841732 12.511869659398188 8.729575902874323 -1 0 0
340 1 21.282506168470626 8.84170139637476 8.838853135741436 -1 0 0
424 1 10.71763382320655 19.67654896654448 8.711948576402554 0 0 0
279 1 12.322584320528446 17.886832323698503 5.5317761189863965 0 0 0
204 1 6.807304617808557 8.73653096459424 5.104599776634124 0 0 0
342 1 5.122659763199871 8.854297063623335 7.001164549545805 0 0 0
348 1 6.840981824561413 8.520309387729677 8.778740521638714 0 0 0
366 1 5.020920807453631 12.394621714923492 7.1636185447740095 0 0 0
367 1 5.290896923568563 10.444518307630071 9.055362982812413 0 0 0
369 1 6.799450326153532 10.528797082223912 6.847728411956974 0 0 0
372 1 7.0351993110107625 12.318208024543514 8.697066026662899 0 0 0
482 1 1.7274480925212106 9.083233419085762 10.527407943094216 0 0 0
414 1 5.202405913234416 19.47966551711304 6.840019047384987 0 0 0
346 1 8.623207521477164 8.98476875286624 6.744799119147857 0 0 0
231 1 12.58506639232857 10.54297504533902 5.1083897755702585 0 0 0
227 1 8.800799215648075 10.69194461876821 4.8987180952666565 0 0 0
352 1 10.720099990963448 8.88473590325112 8.916912693693236 0 0 0
371 1 8.962142874382762 10.43860121973393 8.694972894368759 0 0 0
373 1 10.66731613439355 10.584223676712556 6.795424389501556 0 0 0
376 1 10.738977579583723 12.299263128430182 8.82709539922056 0 0 0
370 1 8.965707362417612 12.281817252112377 6.958457690986609 0 0 0
375 1 12.367032486122298 10.787254561855026 8.81425065177354 0 0 0
374 1 12.589997814681277 12.477178690998523 7.045606942065655 0 0 0
280 1 10.718732513553087 19.716763588656946 5.343347369250293 0 0 0
236 1 14.35483788017882 12.337157433511123 5.257763490589124 0 0 0
354 1 16.062113910085554 8.616789324672872 7.124095564664477 0 0 0
356 1 14.225541786206826 8.99166969477829 8.512597816056358 0 0 0
377 1 14.230261752339922 10.48077653093872 6.970410580609087 0 0 0
379 1 16.06966454362558 10.649169803071324 8.97808010030472 0 0 0
380 1 14.253361050545964 12.397294050448023 8.866769387140504 0 0 0
378 1 15.907029335132307 12.463977536426873 7.058295917593841 0 0 0
196 1 21.383298977453325 8.879858820120571 5.072527051347002 -1 0 0
240 1 17.580600991474455 12.516856905727174 5.183520768554439 0 0 0
239 1 19.298390326729596 10.740525717323493 5.132641482101376 0 0 0
420 1 6.972020571857095 19.422094651303272 8.755168370104387 0 0 0
361 1 21.197963092418206 10.519514420250696 6.864537232631328 -1 0 0
216 1 17.608151230069826 8.873263240667939 5.045960853880791 0 0 0
417 1 7.003152880273166 17.662245301348268 7.006081876446863 0 0 0
358 1 19.394124349871195 8.80318984135216 6.951425528367941 0 0 0
360 1 17.692250552777956 8.885290856470785 8.910731327622235 0 0 0
381 1 17.742972263414593 10.663390399387215 7.150509045250405 0 0 0
382 1 19.61028710540259 12.420529691574322 6.8864723238183805 0 0 0
383 1 19.420901773655963 10.628612913858968 8.823942807526377 0 0 0
384 1 17.771626792617052 12.602604727988838 8.725694448488117 0 0 0
243 1 1.5522919906216794 14.172324327426805 5.123684035391956 0 0 0
386 1 1.8808910629930664 15.868996975522705 7.15270592580074 0 0 0
387 1 1.6559366106634343 14.201249330629718 9.063618919256939 0 0 0
389 1 3.5517547692419003 14.239852435406227 6.8959044580412145 0 0 0
392 1 3.5225370155516527 15.836832313426942 9.023583770281443 0 0 0
541 1 10.52811444915481 14.200719425500742 10.460493453685254 0 0 0
537 1 6.99084766313249 14.30794257665154 10.494534530846536 0 0 0
415 1 5.150437245061595 17.947090958667687 8.863172021647232 0 0 0
390 1 5.068322840537151 16.134742672913386 7.1724692361218 0 0 0
391 1 5.06332436526324 14.166936132433394 8.836948208332185 0 0 0
393 1 6.964792921882296 14.451995458273117 7.322406454920677 0 0 0
396 1 7.180312267410422 16.062689272304283 8.843535408214898 0 0 0
129 1 7.133713260987799 18.166746007665445 -0.03596211603173735 0 0 0
275 1 8.803037318028906 17.98497801224258 5.48356797476808 0 0 0
251 1 8.883920271550188 14.324821005766195 5.352068835440742 0 0 0
394 1 9.015684399515033 16.120446991714648 7.237114560213308 0 0 0
398 1 12.281993264145134 16.037518709930577 7.190180978853965 0 0 0
400 1 10.59351300248298 16.286353872667913 8.960430174717938 0 0 0
397 1 10.629277726386372 13.933381869515955 6.943987487606915 0 0 0
395 1 8.839259724524954 14.089492858558136 8.745909142292884 0 0 0
399 1 12.169755126239982 14.309379118492851 8.76836084124298 0 0 0
260 1 13.9276482230105 16.047020232790988 5.244664121786536 0 0 0
404 1 14.38933642815916 16.061073280222335 8.872200045904805 0 0 0
401 1 14.008961641081566 14.28217388969372 6.938430380953123 0 0 0
403 1 16.139782117297663 14.277535908660013 9.007022619971764 0 0 0
402 1 16.070067130739925 16.11464477278346 7.0304994206622045 0 0 0
272 1 3.357421371618793 19.72519126258283 4.865630587950774 0 0 0
422 1 12.542502868189684 19.822001236531037 7.126004005568895 0 0 0
418 1 8.721726851509034 19.74946540628386 7.150905384298178 0 0 0
385 1 21.287920174388002 14.190877522229703 6.986683039867226 -1 0 0
276 1 7.041802483318061 19.5774214726327 5.330379572609921 0 0 0
264 1 17.792223892687456 15.69633657988434 5.004982224767381 0 0 0
388 1 21.43449940823593 15.926676300493341 8.740916327036489 -1 0 0
244 1 0.09214529538643024 16.05757519939725 5.357350348715527 0 0 0
406 1 19.664192552220342 16.091480398715145 6.943071811256354 0 0 0
408 1 17.750304575083813 16.056165907920114 8.778494679331997 0 0 0
405 1 17.701794798446294 14.271647978854874 7.019114691805396 0 0 0
407 1 19.525895884987595 14.238822575124772 8.70260003673832 0 0 0
147 1 1.725486762559917 21.257241701874843 5.096505935577127 0 -1 0
554 1 1.6169602816300457 19.671608559645783 10.604206360010114 0 0 0
410 1 1.6384246678265757 19.569073848357863 7.073149701464771 0 0 0
267 1 1.5539233156291554 18.071296908317546 5.213044565031985 0 0 0
416 1 3.2621436786428495 19.596270377542375 8.798910545325967 0 0 0
411 1 1.6735160811446217 17.654985364278957 8.971915204634138 0 0 0
413 1 3.2734029725110196 17.721172237505154 6.89231531421606 0 0 0
545 1 14.087650064304416 14.252217660967668 10.504439013458176 0 0 0
493 1 10.725593351191906 7.13211187434406 10.405997834516223 0 0 0
550 1 19.70141661141179 15.886182936533938 10.394483011485683 0 0 0
534 1 5.3886552674912975 15.936523114536325 10.623685872020964 0 0 0
526 1 19.460784068782303 12.658679779276405 10.605910342328968 0 0 0
494 1 12.608599821398093 8.697254001843831 10.495521696529423 0 0 0
510 1 5.3177510456328845 12.362821801686842 10.57866741984285 0 0 0
490 1 8.721138813689475 8.731224094800568 10.580882119936032 0 0 0
462 1 5.2660366408540344 4.822892457213018 10.555810063863099 0 0 0
10 1 8.886742368975446 1.6431149169695964 0.009843348725354584 0 0 0
538 1 8.65911536163404 16.009955025915772 10.38680478509566 0 0 0
529 1 21.395717164421793 14.211055254154227 10.589939842006261 -1 0 0
553 1 21.393781312811267 17.79138301682999 10.08425033885776 -1 0 0
105 1 7.101588495013855 14.38222619349182 -0.07795152335770321 0 0 0
37 1 10.759531375305327 3.25095345176188 0.005224291479257431 0 0 0
58 1 9.015543363423289 9.1600159501583 -0.1577919294320313 0 0 0
90 1 16.258049921780014 12.328252942501047 0.04867582516812857 0 0 0
46 1 19.566234419131575 5.3978432953609445 0.0732430089255737 0 0 0
13 1 10.589021315080553 -0.011023459845185574 -0.10990659652756526 0 0 0
118 1 19.641595143689567 16.43978764985554 -0.09113292903482777 0 0 0
513 1 7.157772228015411 10.37885340082128 10.430380547320707 0 0 0
517 1 10.560596090237114 10.501162788833803 10.594577838189448 0 0 0
514 1 8.760205426251584 12.2908339002351 10.565300097500868 0 0 0
498 1 15.87017595189836 8.843242851983112 10.557440240631673 0 0 0
502 1 19.43840648268329 8.934627171834618 10.4918171924563 0 0 0
102 1 5.557365359637537 16.23028939575627 -0.0440104806057012 0 0 0
50 1 1.4938085238811902 8.835225158441114 -0.07663125371796822 0 0 0
82 1 8.737059580133637 12.266312156115601 -0.169893479801187 0 0 0
573 1 18.07565123912968 17.710834571757836 10.469130254625226 0 0 0
110 1 12.37855483097939 16.0509023900628 -0.09223486704782204 0 0 0
114 1 15.919804870807294 16.165461342707076 -0.15938784794438637 0 0 0
549 1 17.807541142032502 14.383205321970646 10.613757494359357 0 0 0
437 1 3.204980355073901 21.30091442935417 10.547821689633679 0 -1 0
453 1 17.92125869046653 -0.06725346727517192 10.62225191158847 0 0 0
142 1 19.88633133511445 19.56635601184161 -0.1639154452474081 0 0 0
546 1 16.076956721273135 16.230437776098512 10.596730231509222 0 0 0
57 1 7.015532044526993 6.966625846588981 -0.15618774512987343 0 0 0
54 1 5.1830086753006945 8.68305641583367 -0.151694729055027 0 0 0
65 1 14.422179795220769 7.0247970158853645 -0.1337606281754944 0 0 0
440 1 3.437332623117545 1.717651731454856 12.418335409499017 0 0 0
459 1 1.490440403602373 3.5445206604111545 12.50615561938531 0 0 0
578 1 1.7483718875258258 1.7783821862785478 14.250680471528193 0 0 0
605 1 3.484589692199686 3.4534562505556514 14.31998245163852 0 0 0
584 1 3.371828032446867 1.8886755308865362 16.137334265534427 0 0 0
603 1 1.5789424276944226 3.6301747710482184 16.087194146902974 0 0 0
436 1 -0.16313537823176816 1.7081192490633272 12.453670185864041 0 0 0
433 1 -0.106612744999462 21.42930656889578 10.726636548371019 0 -1 0
581 1 3.1825066596930816 21.326958433649203 14.238907864929368 0 -1 0
435 1 1.5515548924764997 -0.1116725406239496 12.35955265867815 0 0 0
577 1 -0.039366104026706594 21.32884300250672 14.232277338555926 0 -1 0
444 1 6.920538094081214 1.8210300083002435 12.623907068702103 0 0 0
463 1 5.144641544434807 3.390886549249767 12.386456198944916 0 0 0