LAMMPS data file via write_data, version 29 Oct 2020, timestep = 300000

864 atoms
1 atom types

-0.29229816807887765 21.55629816807901 xlo xhi
-0.29229816807887765 21.55629816807901 ylo yhi
-0.29229816807887765 21.55629816807901 zlo zhi

Masses

1 58.933

Atoms # atomic

146 1 1.3547402895905758 1.3393775621015056 3.17767246522675 0 0 0
173 1 3.29352238024985 3.1365526454529364 3.313695051133169 0 0 0
8 1 3.1461573285177638 1.7777447497807475 1.4661081089675105 0 0 0
27 1 1.410661978631058 3.1885700031954824 1.6329599278996345 0 0 0
169 1 -0.25596327087945525 3.34825604441176 3.202094851563504 0 0 0
149 1 3.2301740643871275 21.403089461296318 3.2154299017540255 0 -1 0
3 1 1.421101064630456 -0.1935884867744288 1.3232821322189818 0 0 0
432 1 18.342617091763806 19.980599204367294 8.653650826177623 0 0 0
145 1 21.472643569035576 21.29397488889211 3.389299313606649 -1 -1 0
152 1 3.7540459492777183 1.4565425432957575 4.916381182724853 0 0 0
97 1 -0.2131205427783911 14.23866431286151 -0.07352225489420178 0 0 0
12 1 6.942816321801949 1.4840583337506816 1.3788032296466783 0 0 0
31 1 5.211300165064078 3.301202183310969 1.5800840565432135 0 0 0
150 1 5.1591119960338725 1.2888131681758355 2.9659900882693413 0 0 0
177 1 7.068667479604528 3.4101681391284395 3.330881064999776 0 0 0
153 1 6.700793096755975 21.08242781523544 3.394016657011495 0 -1 0
7 1 5.108736154140988 21.514908797766118 1.343665183954405 0 -1 0
175 1 5.1177401699523 3.564908074645018 5.078236468617037 0 0 0
156 1 6.538735680252173 1.5855606915463412 5.2744765141041094 0 0 0
429 1 18.076179107053555 18.13505652114307 7.075792909624354 0 0 0
430 1 19.88628920354826 19.641696832727256 6.660710181715598 0 0 0
35 1 8.8720270311429 3.334270633941917 1.317137898684782 0 0 0
154 1 8.58506105524394 1.761052243665345 3.4101865489792327 0 0 0
16 1 10.632893280040157 1.5052127898602377 1.5033988634012838 0 0 0
181 1 10.572947079243741 3.017032185298781 3.4440613425928177 0 0 0
158 1 12.267195481768576 1.5666754608277524 3.833978184116247 0 0 0
431 1 20.016164539519856 17.709448133581027 8.683955062273593 0 0 0
29 1 3.548590178437458 3.260637997109041 -0.27030203702181715 0 0 0
98 1 1.7773995835894327 15.548284294822112 -0.2636484140332058 0 0 0
39 1 12.816813326771959 3.0723852165923575 1.429534848761012 0 0 0
20 1 14.565842583329154 1.377393741102931 1.530572485363942 0 0 0
43 1 15.613094616734728 3.3560164129282493 1.7361713858501244 0 0 0
162 1 15.859745243037077 1.2313330052576912 3.4894651841346973 0 0 0
185 1 14.015616864905143 2.7868851712146987 3.696189076498626 0 0 0
164 1 14.163378343379145 1.1606616224087465 5.699757953949448 0 0 0
110 1 12.576860746533432 15.905363689129844 -0.11253922083908868 0 0 0
4 1 21.53197635837601 1.0875290803654056 1.5478878153498556 -1 0 0
189 1 17.665749526807765 3.086661699916142 3.732004514668522 0 0 0
24 1 17.403353351502737 1.5687333868724405 1.7579660286765981 0 0 0
47 1 19.541082516338342 3.036139293875412 1.226648473384499 0 0 0
166 1 19.737970744645672 1.153922204485236 3.2590467526347853 0 0 0
26 1 1.6539763787980435 5.1541862832635985 -0.03704821777932038 0 0 0
50 1 1.600375687764416 8.56764960857365 -0.19489130520389225 0 0 0
165 1 18.01758149429638 21.161393337626166 3.2089469109377053 0 -1 0
191 1 19.439180601109996 3.1948461287933525 5.0329713382782 0 0 0
486 1 4.666846516440073 8.507607632620823 10.529399552243776 0 0 0
32 1 3.234735407941243 4.981668581968366 1.7465924042650744 0 0 0
51 1 1.678240015052814 6.867970134423707 1.6554661963052586 0 0 0
170 1 1.4149765104048009 5.032383697951979 3.398259526956214 0 0 0
197 1 3.4975738168701342 6.740592303407151 3.4053359650460897 0 0 0
176 1 3.371357369393674 4.970430262057007 5.256375922944001 0 0 0
28 1 -0.05492998488940681 4.940473651954322 1.5222872600526145 0 0 0
193 1 -0.20640004955813906 6.815330863957596 3.2798041672335154 0 0 0
70 1 19.93226726941844 8.549218039628654 -0.2146300413956368 0 0 0
172 1 21.24921642357473 4.895561468469293 4.879902691407427 -1 0 0
5 1 3.3787609073876093 21.496989548416956 -0.044065131038010186 0 -1 0
36 1 7.005937347718276 5.064041894881217 1.464118063998324 0 0 0
55 1 5.442051338311262 6.973688488101939 1.8231925872597774 0 0 0
174 1 5.370594217412006 5.29971980310162 3.3822693696232564 0 0 0
201 1 7.273609202286982 6.870145884765264 3.2112423966181183 0 0 0
199 1 5.217985286901655 7.089829687042279 5.0458161406526365 0 0 0
180 1 7.182255263418917 5.623830438831115 5.0310941821442885 0 0 0
482 1 1.652284863907544 8.518327405193531 10.141794813942989 0 0 0
570 1 16.082787291180068 19.82876474379539 9.995552349472977 0 0 0
178 1 8.845156877831634 5.07706346870534 3.3480277741061917 0 0 0
59 1 8.892909553453961 7.30762685564625 1.690131905317384 0 0 0
40 1 10.547963975937586 4.983091919637705 1.5681952361544924 0 0 0
205 1 10.886682526417546 6.806754296140739 3.1228556711840882 0 0 0
63 1 12.730078516235313 6.783309471950309 1.3803327047868965 0 0 0
182 1 12.633572376252749 4.817227592445304 3.257221559365066 0 0 0
114 1 15.840685271339522 16.29580169588653 -0.27972266029283105 0 0 0
207 1 12.189186079026205 7.030464845383021 5.030646834186901 0 0 0
44 1 14.306773472133324 5.074914464653176 1.6716961168083802 0 0 0
67 1 16.18655149888327 6.538497419811831 1.7305652171528738 0 0 0
186 1 16.277609996786047 4.882744582837617 3.5860941797383066 0 0 0
209 1 14.441833234631837 6.800782783270502 3.382536752346538 0 0 0
61 1 10.734173568294302 6.983508670598843 -0.13926911316843246 0 0 0
54 1 5.130596808063496 8.952053262928391 -0.03365820588294083 0 0 0
213 1 17.8858909891675 6.654005196247382 3.2466676033735804 0 0 0
48 1 17.677220973195787 4.375818884235282 1.8046846201699651 0 0 0
71 1 19.793509480139683 6.536746821155962 1.538452403400285 0 0 0
190 1 19.758813781475247 4.884463835882709 3.3072724276386682 0 0 0
192 1 18.133830993180574 5.516239185128216 5.38384837745128 0 0 0
215 1 19.787691810959494 6.92054814534112 5.098356597425307 0 0 0
194 1 1.6909110066666855 8.88360636304466 3.204366772810449 0 0 0
56 1 3.330156351391532 8.945688349563591 1.7506876038813286 0 0 0
75 1 1.595150690306756 10.627447940782416 1.4651444014597828 0 0 0
221 1 3.4867265765892483 10.86945080546571 3.3563663762590115 0 0 0
219 1 1.569364699786522 10.570848359739252 5.195340008811193 0 0 0
200 1 3.1815735959534996 8.958070528475055 5.028878707637394 0 0 0
52 1 21.548474111198793 8.795396894785375 1.6103031096324627 -1 0 0
218 1 1.782239033863493 12.263704805777653 3.319821879174991 0 0 0
80 1 3.3960981304038116 12.425022701715488 1.4984725549197968 0 0 0
224 1 3.587156731085322 12.531714419512847 5.342034127815244 0 0 0
288 1 17.995113042663448 19.65816873173204 5.2148119413700105 0 0 0
196 1 21.20835186873613 9.110166158869722 5.067572678439163 -1 0 0
77 1 3.379638410115951 10.548976385539723 -0.23873446652888053 0 0 0
198 1 4.791946553922467 9.092564160165816 3.7804044133632972 0 0 0
60 1 7.076853302268361 9.15182367376928 2.205860021112154 0 0 0
79 1 5.097841366643957 10.541202602937805 1.6138397035331542 0 0 0
225 1 6.922013117362012 10.703498693844002 3.895389555085994 0 0 0
222 1 5.111466781339416 12.585998458501424 3.3361220923476376 0 0 0
84 1 7.347713659291124 12.264171053466047 1.574342453896892 0 0 0
228 1 6.874810480931788 12.878102797519473 4.946156149829904 0 0 0
223 1 5.004373927073534 10.952510490773767 5.126616103617584 0 0 0
53 1 3.726309091499287 7.126209262185456 0.27531452716712046 0 0 0
204 1 6.9514759488291356 8.590864145922412 5.143101762727624 0 0 0
102 1 5.322594625602608 15.906234779761467 -0.230974789371448 0 0 0
309 1 17.896173950178223 -0.12980456058806603 6.940644944253928 0 0 0
93 1 18.285066015311727 10.072699858265953 -0.15414392015871864 0 0 0
64 1 10.919609527847612 8.901936823776852 1.5744228532353366 0 0 0
202 1 8.913345518893586 8.754960018959455 3.4724328289119795 0 0 0
83 1 9.025774918125306 10.365788036728384 1.720984217700121 0 0 0
229 1 10.787272939349606 10.633596002610558 3.309151734962713 0 0 0
88 1 10.521025691838304 12.18041240304252 1.35743535986812 0 0 0
230 1 12.676661052320872 12.263129230661272 3.6535654393795225 0 0 0
87 1 12.50001189976122 10.57569637251753 1.721272341791281 0 0 0
226 1 8.485910130586829 12.523293350361316 3.2850284260240445 0 0 0
232 1 10.60586561441116 12.434566064476746 4.993988750400039 0 0 0
227 1 8.857144747467418 10.881994291692676 5.143889699753437 0 0 0
206 1 12.45156748655583 8.73886385565514 3.400692451346679 0 0 0
66 1 16.275031256654223 8.717870847453637 -0.11852075996655081 0 0 0
534 1 4.864652520391856 16.150751871960004 10.556660305766398 0 0 0
311 1 19.697171642623687 -0.15064732608760245 8.73835052006077 0 0 0
74 1 1.4757752369630006 12.310022036629837 -0.23477608971628938 0 0 0
210 1 16.389072245233223 8.752982361810501 3.24721352533633 0 0 0
68 1 14.520893311855271 8.499138834099037 1.5027761322858315 0 0 0
91 1 16.20784961107951 10.61517651819285 1.6101454035420517 0 0 0
233 1 14.764639293802148 10.66951303936446 3.4573594612880245 0 0 0
234 1 16.06004241924166 12.501923925829768 3.5677433457524375 0 0 0
92 1 14.25254811173316 12.32831148954062 1.5265525463329215 0 0 0
167 1 19.98440481606729 21.49257194141953 5.316148280206757 0 -1 0
236 1 14.285597757113889 12.591267567564485 5.4654061702263785 0 0 0
235 1 16.14761726645405 10.518323681068258 5.4546641557269835 0 0 0
38 1 12.59535042604648 4.883827253282047 0.053541259321382983 0 0 0
76 1 -0.250006933099728 12.217490875445556 1.7475851636002586 0 0 0
217 1 -0.14695441993863587 10.455292297673711 3.33155848570446 0 0 0
72 1 18.437653603703247 8.557759656979242 1.7641832511773785 0 0 0
214 1 19.793833247465102 8.562640775614245 3.3435046000631177 0 0 0
95 1 19.548845434524885 10.622099484901838 1.6524862214594718 0 0 0
237 1 17.961822005652095 10.805219444716926 3.466346862248037 0 0 0
96 1 17.65391381408451 12.523067124082825 1.611030645016919 0 0 0
238 1 19.371200158697597 12.447940016100707 3.2519374138097024 0 0 0
554 1 1.349134300103926 19.25304438878004 10.460551996673885 0 0 0
283 1 16.223227030778965 18.066730279497193 5.342090924880819 0 0 0
99 1 1.5935382113448444 14.008753868670825 1.7217434660801985 0 0 0
242 1 1.3888016664821758 15.993036270723929 3.0565677887321314 0 0 0
245 1 3.180085914014213 14.024993219561296 3.6327213519167034 0 0 0
104 1 3.482781410699403 15.792069387566402 1.6569626002396052 0 0 0
243 1 1.5112956754617795 13.896912387994993 5.173541832982656 0 0 0
248 1 3.216795668732233 16.20872496968836 5.034910135341093 0 0 0
103 1 5.420845999830514 13.860626624809278 1.3784959334466012 0 0 0
108 1 7.1471430854053395 15.835563758655516 1.241359154870781 0 0 0
246 1 5.448670832280078 16.0536815795071 3.1230769146023616 0 0 0
249 1 6.931384670466647 14.373403897625783 3.066942306755481 0 0 0
10 1 9.001590807647403 1.4162781367513344 -0.2526892970473684 0 0 0
252 1 7.0266270933334845 15.719908736076247 5.099410200320563 0 0 0
247 1 4.976422252714978 14.672364137545008 5.139216789956047 0 0 0
427 1 16.184736075469317 17.771501346967447 8.739390219507086 0 0 0
107 1 9.133757783579505 14.18128058235839 1.2999661810005745 0 0 0
250 1 8.72566527708259 16.046667911813444 3.1255188138715693 0 0 0
112 1 10.569509297660478 16.06976170077909 1.613124411305068 0 0 0
253 1 10.547160962417873 14.205665502733627 3.297288135344223 0 0 0
254 1 12.465955005660934 16.05998050848366 3.0807047849609903 0 0 0
111 1 12.393756632889998 14.092518232645052 1.7958980385762549 0 0 0
255 1 12.333715928701558 14.491452833172024 4.909768804612214 0 0 0
251 1 8.635515825116746 14.017360887540105 5.252972846224914 0 0 0
256 1 10.597494361442362 16.07715386734889 5.177507235571653 0 0 0
115 1 16.020242169385334 14.465329113509094 1.4235506515618017 0 0 0
116 1 14.43651640446431 16.191737724621312 1.8943471798355462 0 0 0
257 1 14.190623792282825 13.980472939475082 3.396038065297633 0 0 0
258 1 16.128201827747255 16.117017917175794 3.4513565691367036 0 0 0
260 1 14.238114700326275 15.94304752020764 4.895553101903571 0 0 0
259 1 16.298128724296298 14.447245949512745 5.248068685417697 0 0 0
494 1 12.336415966525976 8.983146554386071 10.437732809893431 0 0 0
241 1 21.526253430731053 14.092902834398988 3.4438579198854384 -1 0 0
100 1 -0.2025826129847701 16.03215410691407 1.4729883807743447 0 0 0
119 1 19.781403998241316 14.41997969198486 1.5553814388188008 0 0 0
120 1 17.753819603929742 16.085648072503098 1.292261675184477 0 0 0
261 1 17.879754956478706 14.248859269915675 3.5835860098673566 0 0 0
262 1 19.843801124456377 16.302008114336147 2.9883760496511 0 0 0
268 1 0.09901943568217703 19.70332867816078 5.093946441490842 0 0 0
123 1 1.431845885027324 17.675949938612 1.3081298170807574 0 0 0
128 1 3.3257576711551717 19.55351622532109 1.3144007864193292 0 0 0
266 1 1.5501726833417773 19.514277108440183 3.2193050876057803 0 0 0
269 1 2.9982670231306408 17.837675663386207 3.22857851402701 0 0 0
267 1 1.71435007570033 17.916761370519666 5.334186290971898 0 0 0
272 1 3.1760838021290843 20.213446776230214 5.3183921242886605 0 0 0
124 1 21.272247108305272 19.808042386364285 1.3391158942857282 -1 0 0
426 1 16.095235510259165 19.953018315147567 7.611142399615761 0 0 0
273 1 7.045900140321942 18.192768231034563 3.327800834210432 0 0 0
127 1 5.314101212400148 17.920902229020754 1.9405924306042075 0 0 0
132 1 7.188934711728808 19.7254927514914 1.5967930982505962 0 0 0
270 1 4.911395550788327 19.482196497534673 3.398591550797484 0 0 0
276 1 7.164352071276341 19.59997025538936 5.116728303744311 0 0 0
15 1 12.689548656611912 -0.1357077653935249 2.059075884715415 0 0 0
11 1 8.779993684325753 21.45710172134052 1.7891447863448446 0 -1 0
131 1 8.608669653842652 17.983736007869 1.4595452963185105 0 0 0
157 1 10.359988075568921 0.042038547751391986 3.7576199382837396 0 0 0
274 1 9.094481579795234 19.77029312752743 3.7963270902237234 0 0 0
136 1 10.611522745470886 20.118857640850592 1.6702000415878258 0 0 0
277 1 10.331919874923697 17.887253878030684 3.1443286077295998 0 0 0
278 1 12.357220617690968 20.001680877416263 3.532857346359685 0 0 0
280 1 10.859867823620469 19.517577552178587 5.178686719643496 0 0 0
135 1 12.352902702188521 17.98066087815878 1.4853894529733267 0 0 0
155 1 8.421560768365026 21.550842082225493 5.51805184936104 0 -1 0
275 1 8.520493543158333 17.66661018790993 5.488371778409177 0 0 0
279 1 12.389839864093886 17.479757870331717 5.36012028358071 0 0 0
307 1 16.17449480916759 0.09269005382766421 9.043706559771904 0 0 0
425 1 14.149403627682307 17.736706858891367 7.178244519134691 0 0 0
428 1 14.284099721340352 19.11019137402436 8.952894087946351 0 0 0
163 1 16.19123958645909 21.169234204355583 5.357612506564434 0 -1 0
122 1 1.4885987542549821 19.744879090283987 -0.09918483040520096 0 0 0
19 1 16.118556192920096 21.233199274694094 1.760877560740619 0 -1 0
161 1 14.387400712352866 21.216943765222823 3.650518476945898 0 -1 0
139 1 15.832116929790013 17.95979806445876 1.3985160683091455 0 0 0
140 1 14.186239100805606 19.759708585033806 1.6051779200887788 0 0 0
281 1 14.137804951714912 18.166753138916675 3.3214375870741586 0 0 0
282 1 16.137537391556663 19.453104719662605 3.4865240445176453 0 0 0
284 1 13.76054348129725 19.581757764524056 5.505270273002439 0 0 0
57 1 6.904073232940616 7.256258685404709 -0.061362711385110735 0 0 0
401 1 14.196307845308409 14.574946684079443 6.97414723397457 0 0 0
265 1 -0.21358234354576558 17.749811160393484 3.2900560264457175 0 0 0
23 1 19.407153462413334 21.539348073531656 1.234417606838207 0 -1 0
287 1 19.549400591096926 18.05452309272283 5.143644906682805 0 0 0
143 1 19.73307974938607 17.917849171028024 1.063771733621244 0 0 0
144 1 17.960415932596597 19.794720499723958 1.5175226866110245 0 0 0
285 1 17.846671617360023 17.749431219944796 3.0891791882185555 0 0 0
286 1 19.659846212931292 19.657656477791896 3.5574796424673925 0 0 0
402 1 16.567658584483496 16.328068837227747 6.73323928504113 0 0 0
404 1 14.393175349225038 16.038508016492827 9.131809868624337 0 0 0
422 1 12.311980037072889 19.830269681062646 7.454464277563956 0 0 0
293 1 3.5674874885207246 -0.20609376581417474 7.314151611415652 0 0 0
147 1 1.6546142647267505 0.020316836005874417 5.276129515609172 0 0 0
171 1 1.2964467275760516 3.1140642523815205 5.083078901064858 0 0 0
290 1 1.5613447802133493 1.6750889596245175 7.30171874744006 0 0 0
296 1 3.0898802324228827 1.7123298299320564 9.10111590278427 0 0 0
317 1 3.316607422518128 3.1731561275700395 6.705722729344176 0 0 0
315 1 1.1238004310598237 3.3514005138366354 9.008847851907717 0 0 0
292 1 21.339690154767936 1.5864605108726157 8.986395809629203 -1 0 0
313 1 21.555673828994998 3.1605493397533198 6.977991702341169 -1 0 0
289 1 0.008413002866411667 0.11744083583326509 6.918541616579232 0 0 0
416 1 3.3024792052405187 19.980372692754273 8.708505175757962 0 0 0
151 1 5.174195683444232 -0.26060573323015035 4.927683906604243 0 0 0
294 1 5.197623929266126 1.5351849458026492 7.2014533185714305 0 0 0
300 1 7.036885737033903 1.6798685595769907 8.638388788760508 0 0 0
319 1 5.058270825086521 3.284275627044283 8.5343179367385 0 0 0
321 1 7.032373187931323 3.5092052446894586 6.528635949701402 0 0 0
295 1 4.946476979433361 -0.082799801082617 9.619178524673254 0 0 0
297 1 6.553980633740614 -0.08344863587395326 7.021271830756108 0 0 0
160 1 10.773871093861995 1.6752724853215881 5.460916455930682 0 0 0
183 1 12.371166644005902 3.6981289529825134 5.465869085588841 0 0 0
179 1 9.048882237948565 3.5155719926094426 5.153624155918706 0 0 0
298 1 8.68696406145644 1.7093324226615505 6.8219076256374835 0 0 0
323 1 8.902374098979118 3.2307234966787237 8.487455058784896 0 0 0
304 1 10.780021871382912 1.69151443779746 8.829899045351258 0 0 0
325 1 10.897994707029516 3.614117158558458 7.059381219347506 0 0 0
327 1 12.54165695768572 3.586893492544429 8.949809384547079 0 0 0
302 1 12.44802998492516 1.2844801187923913 7.13977327298833 0 0 0
303 1 12.10582475689954 -0.005401447375461499 8.805247236834255 0 0 0
187 1 15.996206343370114 3.0161648479177354 5.241622001100327 0 0 0
306 1 16.119546867838814 1.1179746363159968 6.95722804894226 0 0 0
308 1 14.012287166712019 1.5443945210257373 8.844511479084403 0 0 0
329 1 14.157499143749451 3.5663227918625555 7.296343541641928 0 0 0
331 1 16.15752069986643 3.5489145935381416 8.695077693617405 0 0 0
305 1 14.207626262313523 21.32140454549168 7.246379113763676 0 -1 0
168 1 17.6343831083667 1.2114724836436894 5.032726130038207 0 0 0
148 1 21.401379022075595 1.8492712296347191 5.067022810451869 -1 0 0
333 1 17.831743002693585 3.472239223302282 6.853353044503524 0 0 0
310 1 19.607057836781422 1.688774504853867 6.88072226173563 0 0 0
312 1 18.101199767455576 1.6835230317126053 9.06757044446188 0 0 0
335 1 19.916288746299337 3.204205547544264 8.824004666563418 0 0 0
423 1 12.461771660125237 17.482205362551504 8.754417080005947 0 0 0
301 1 10.297675631954146 21.31577448592835 6.873002424590758 0 -1 0
299 1 8.575203939229601 0.05178479085416671 8.981475758386527 0 0 0
195 1 1.6880887825604685 6.717056234584849 4.873731500659923 0 0 0
314 1 1.241582545862417 4.946690291479509 6.5771594687657675 0 0 0
339 1 1.4803669133197346 6.862847789394273 8.15112116009441 0 0 0
341 1 3.4396526783520067 6.859729141848629 6.667808111814213 0 0 0
320 1 3.223264581406117 4.884247979547666 8.192239748701807 0 0 0
316 1 21.432279328368942 5.038514780538528 9.084846405927689 -1 0 0
337 1 21.455704566292496 6.9885805575958715 6.541907554666371 -1 0 0
449 1 13.950979393855516 21.221061409993823 10.028062775968856 0 -1 0
410 1 1.440597621725253 19.922869235219004 7.1300857564437745 0 0 0
415 1 5.139633484486605 17.990292024811588 8.727363965650715 0 0 0
318 1 5.139111804572877 5.0110632749408195 7.0090279291659945 0 0 0
324 1 7.140948551371471 5.139331176005617 8.585105865873052 0 0 0
343 1 5.151732313513738 6.4864001603523205 8.596811858234936 0 0 0
345 1 6.8292005944437815 6.764721689289079 6.805114684191958 0 0 0
411 1 1.063815045886288 18.030416974805988 8.617214514830245 0 0 0
203 1 9.128178925213357 7.263745893825516 5.404596318622012 0 0 0
347 1 8.991857417261379 6.939479693369536 8.49384706389983 0 0 0
184 1 10.481558128120248 5.320916672130324 4.839669903044441 0 0 0
322 1 8.767134416847654 5.125768991733193 7.024594416526927 0 0 0
328 1 10.37073174058531 5.2359891974121275 8.751489782278211 0 0 0
349 1 10.755580096137649 6.9365579718718084 6.943749623401756 0 0 0
326 1 12.590229365874684 5.385945669107988 7.250423074080307 0 0 0
351 1 12.570064754903337 7.198244288030206 8.89256265813522 0 0 0
403 1 16.172726536034922 14.432350631677014 8.686753679660308 0 0 0
414 1 5.23980969743437 19.88381453783513 6.6806256068913425 0 0 0
211 1 15.868823096148128 6.79634034284645 5.2361513168519656 0 0 0
291 1 1.3902266210719596 -0.04643170622258755 8.615719431335856 0 0 0
188 1 13.840241038914858 5.178590152458242 5.0443954184054105 0 0 0
330 1 15.879621714454776 4.898900188207963 6.708679252610718 0 0 0
332 1 14.396095466447816 5.497728628157061 8.78142051577601 0 0 0
353 1 14.126436322362933 7.076475242985363 6.700049746989002 0 0 0
355 1 15.93944269089411 7.2099268887127 8.86733213762292 0 0 0
421 1 10.515488409416555 17.728464773193622 7.217008435649976 0 0 0
263 1 19.548913459765934 14.531540108760321 4.951021833629677 0 0 0
336 1 18.080843985290755 5.074639817887202 8.792267401649154 0 0 0
334 1 19.993578898335826 5.064678248116399 6.938257843123367 0 0 0
357 1 17.753602479408038 7.031267685366302 7.249698992822561 0 0 0
359 1 20.222995419537085 7.076400535357412 8.78642985352817 0 0 0
271 1 5.151119971260092 17.941059612991076 5.295010725445554 0 0 0
385 1 21.082765064715744 14.389384041654422 6.873047416513683 -1 0 0
338 1 1.478573686709547 8.46510050738229 6.68412466599849 0 0 0
344 1 3.380362027146984 8.748896884481544 8.247318966369651 0 0 0
363 1 1.4967617931333 10.789465445267707 8.409118878806423 0 0 0
365 1 3.4851558768297575 10.571953129300816 7.052338218800803 0 0 0
362 1 1.5578887868598035 12.634749373655847 6.871131558068711 0 0 0
368 1 3.416279819633529 12.565621283951863 8.738483696416958 0 0 0
340 1 21.520886123893042 9.127270798209047 8.638640711743443 -1 0 0
361 1 -0.25982820595481826 10.784528956836176 6.676576657262522 0 0 0
364 1 21.276170731013927 12.354935462962763 8.551343870771664 -1 0 0
409 1 21.54963433075134 17.766970962004812 6.7049734425215615 -1 0 0
420 1 6.734334355993894 19.902525029036752 8.770448736679118 0 0 0
342 1 5.219784151734152 8.788119527442111 6.863948176957501 0 0 0
348 1 7.2161051792822155 8.48808228059162 8.44107559308376 0 0 0
367 1 4.8720791653433375 10.516712484969611 8.745183181022409 0 0 0
369 1 6.806163694032802 10.388819152295035 6.424223341958874 0 0 0
372 1 6.719410468653854 12.520290639937391 9.1626766851432 0 0 0
366 1 5.504607680629894 12.545940744198049 6.895872506886603 0 0 0
419 1 8.978166117494737 17.89021028333311 9.065878359985302 0 0 0
412 1 21.26824492301892 19.711411367026017 8.505928672538976 -1 0 0
208 1 10.767122915922629 8.922640355466605 5.028985704290707 0 0 0
231 1 12.772533000216796 10.637143249832006 5.422664799266425 0 0 0
418 1 8.820623119574158 19.7467340770055 7.2609189824860145 0 0 0
352 1 10.78241046127205 8.728331268252905 8.620470335907534 0 0 0
370 1 8.392654093944357 12.625088912547842 7.183677700717857 0 0 0
346 1 8.954015446733983 9.303230735344961 6.9350984820618375 0 0 0
371 1 8.695939353728098 10.623224035952 8.787758088583722 0 0 0
373 1 10.686839305443039 10.887270741190141 7.005128195398531 0 0 0
376 1 10.634790231480846 12.640203000517236 8.888038038814233 0 0 0
350 1 12.382299649005958 8.733514979343866 6.928350577066377 0 0 0
375 1 12.278268141380405 10.820620564385703 8.674803272106084 0 0 0
374 1 12.531963681798409 12.671992699552751 6.782550884393741 0 0 0
9 1 6.9551331400262635 -0.17360931227131715 -0.027902081919842947 0 0 0
264 1 18.001696769013975 16.43412163912876 5.0130904385983985 0 0 0
408 1 18.169255520147154 15.917630874303166 8.784059109584556 0 0 0
356 1 14.382749604880956 9.002410167087351 8.841520089241651 0 0 0
212 1 14.323392093231956 8.760875309419662 4.8355827458382326 0 0 0
354 1 16.0523504324594 8.959771135744674 6.99738210110741 0 0 0
377 1 14.274629973262492 10.859255971794948 7.275946453521769 0 0 0
379 1 16.282577160851403 10.873655727334794 8.666599389130914 0 0 0
378 1 16.060133337237495 12.72662550216231 7.120178804454305 0 0 0
380 1 14.268452250294747 12.658469794162361 8.974339807569704 0 0 0
239 1 19.270579903745123 10.708718527928724 5.262204131611387 0 0 0
240 1 18.020368409562245 12.666376598315225 5.441244855132933 0 0 0
407 1 20.223661228491217 14.56466321429873 8.814972163453904 0 0 0
220 1 20.859414722520143 12.452325499290435 5.025032553904391 -1 0 0
216 1 17.712584778718252 8.602936488798369 5.380199653247259 0 0 0
360 1 17.9033017442707 8.98856257674489 8.938470213680814 0 0 0
358 1 19.74140935980104 8.886188134134034 7.109487946535951 0 0 0
381 1 17.843667145181804 10.873397157733196 7.081524464598073 0 0 0
383 1 19.53269888272802 10.768510436259442 9.042412667823115 0 0 0
384 1 17.93931293098688 12.727595577086532 8.972413642218497 0 0 0
382 1 19.75978585116593 12.699375551186563 7.086189864962587 0 0 0
413 1 3.1465720730221194 18.086217951469102 7.105304611886745 0 0 0
405 1 18.254323986139795 14.552194812307919 6.816764974725962 0 0 0
244 1 -0.12440866536873715 15.92495157122662 5.023483067490642 0 0 0
424 1 10.415099921718067 19.86523472720831 8.988417370067209 0 0 0
386 1 1.6377277313519294 15.873647960844382 6.655881627731365 0 0 0
387 1 1.6966700275026039 14.345670923246974 8.416594994076165 0 0 0
392 1 3.3234748080769103 16.338650715856375 8.771305133375433 0 0 0
389 1 3.607653487615974 14.048323890350401 6.9933417133303415 0 0 0
388 1 0.06442771995231905 15.918695319937404 8.667492798365823 0 0 0
406 1 19.684704058960087 16.228238441641913 6.790256144367849 0 0 0
396 1 7.16972797546294 15.93891129904228 8.684665204537861 0 0 0
393 1 6.966056788161887 14.306043071803755 6.935200483816741 0 0 0
390 1 5.275174133956776 16.130698120746942 7.121822657388354 0 0 0
391 1 5.392538734172652 14.526024882319742 8.803271254080082 0 0 0
395 1 8.860344712222766 14.302872644245483 8.821812197718163 0 0 0
397 1 10.749555773216441 14.401379159363838 6.862080707493597 0 0 0
400 1 10.748507118027778 15.751300452597581 8.803992987670108 0 0 0
394 1 8.745469760740278 15.898560534145775 6.943246226099806 0 0 0
399 1 12.621429517965487 14.176404278938067 8.781032980735404 0 0 0
398 1 12.666774309232057 15.938552328538707 7.250371592747405 0 0 0
159 1 12.151083618768487 21.503450004078474 5.327306337711042 0 -1 0
417 1 7.062999855166538 17.872222205424734 7.076849048423161 0 0 0
517 1 10.53875495455158 10.730033212424638 10.39932783213257 0 0 0
433 1 -0.25552013132853363 21.41844925271012 10.397195930692815 0 -1 0
533 1 3.6055833878022296 14.436940016722549 10.242505202319924 0 0 0
505 1 -0.0603391146151043 10.927222393503056 10.62639681413787 0 0 0
502 1 19.83347062633358 8.832690874654492 10.515589643086102 0 0 0
509 1 2.935894010994268 10.348577160468716 10.3988772693198 0 0 0
522 1 16.377333509704975 12.654486772427928 10.447205014433324 0 0 0
65 1 14.464561433593502 6.895239089569421 -0.0980858537588126 0 0 0
557 1 3.3223270445184934 18.047155005870508 10.469956214828738 0 0 0
89 1 14.160717106629676 10.219825675776642 -0.14794677098900738 0 0 0
37 1 10.676878296701972 3.5023592348071366 -0.10785989728966097 0 0 0
106 1 9.278044066476603 16.082724469125466 -0.25482077539965514 0 0 0
513 1 6.765169671879259 10.06316748276495 10.269704061928538 0 0 0
86 1 12.161560716494778 12.460587078282765 -0.21264140984091356 0 0 0
30 1 5.189763354125742 5.129783613050773 -0.010996190058612243 0 0 0
565 1 10.751240027458186 17.40769709964846 10.598558156629538 0 0 0
461 1 2.992528807299894 3.533270324276698 10.353370201610899 0 0 0
473 1 14.166294210703297 3.4937350966221756 10.379711918116982 0 0 0
42 1 16.32977257960377 4.9757595147065965 -0.1168735486827801 0 0 0
138 1 16.19477275365356 19.781994309075806 -0.10871766173860142 0 0 0
6 1 5.220259324998992 1.7433373610157124 -0.18260871796852138 0 0 0
81 1 7.255269165306189 10.163845582786585 0.1916851760281003 0 0 0
34 1 8.734397740081043 5.21694931287944 -0.19103337379207136 0 0 0
14 1 12.613682030757039 1.380222857142255 -0.20922181089948577 0 0 0
506 1 1.8122028729962398 12.696214059426998 10.46117761836401 0 0 0
566 1 12.339922108151558 19.4525126703102 9.943914894055037 0 0 0
510 1 4.806085823174843 12.048345034538608 10.6292978977812 0 0 0
73 1 21.346934734102327 10.401721053185403 -0.017665632481439986 -1 0 0
434 1 1.1149291015909695 1.5271898880845367 10.581092960984238 0 0 0
105 1 7.137341276848917 14.014964114272601 -0.042584912029292876 0 0 0
470 1 12.155688987988773 5.423252327173543 10.555376644080807 0 0 0
485 1 3.3532410143330065 6.568256869664143 9.91049653669222 0 0 0
49 1 -0.04964467180825907 6.764526835917809 -0.2170528659941275 0 0 0
573 1 18.212116796330974 17.862978699620676 10.480357310087898 0 0 0
62 1 12.328449795402868 8.75109043879869 -0.06312845783559329 0 0 0
130 1 8.881725391262094 19.89834089094917 -0.004085570112961734 0 0 0
465 1 7.271612680766514 3.4474246700969453 10.336452036321171 0 0 0
58 1 9.164148169372618 8.867342955160622 -0.2159613493148963 0 0 0
481 1 21.555382937536194 7.211737066468968 10.630907680659012 -1 0 0
501 1 17.94402818145494 6.938507618906466 10.510299523241136 0 0 0
521 1 14.142082611441412 10.888519966952199 10.626113674467497 0 0 0
537 1 6.958933166397304 14.371080180025992 10.582602822553433 0 0 0
90 1 15.79241531275393 12.323156946653526 -0.23682374394920913 0 0 0
69 1 18.195423289554235 7.042694330892117 -0.2436581340107864 0 0 0
125 1 3.276947560912233 17.397745123148745 -0.2574221199468525 0 0 0
85 1 10.63269722620684 10.560920256128798 -0.29047110584144775 0 0 0
78 1 5.527208509857016 12.063874442879595 -0.1432281605250907 0 0 0
549 1 18.031754230772236 14.32625075091561 10.629924151946941 0 0 0
440 1 3.3397797402414886 1.7024075080601366 12.213148144832074 0 0 0
459 1 1.6236181445943285 3.524287887603408 12.562432586031864 0 0 0