LAMMPS data file via write_data, version 29 Oct 2020, timestep = 300000

864 atoms
1 atom types

-0.07228630125390545 21.336286301253 xlo xhi
-0.07228630125390545 21.336286301253 ylo yhi
-0.07228630125390545 21.336286301253 zlo zhi

Masses

1 58.933

Atoms # atomic

8 1 3.408623521245225 1.5848407538862337 1.8133277132134975 0 0 0
27 1 1.7186778124057893 3.422439011399362 1.6584288100589724 0 0 0
146 1 1.58735310320372 1.5515853513064237 3.3446854517849216 0 0 0
173 1 3.3477489147026507 3.3685584521711367 3.5027062086752965 0 0 0
149 1 3.4407298993382347 -0.06913728645176943 3.5086878518872164 0 0 0
553 1 21.30160575281105 17.80445634400499 10.61268177051706 -1 0 0
145 1 21.25014369804958 21.295874198682238 3.3780567638613386 -1 -1 0
147 1 1.6423961320690248 0.02189168414509575 5.223646242669669 0 0 0
152 1 3.4382184760005154 1.7483268614142118 5.271881638698893 0 0 0
412 1 21.22080201960557 19.68785004279892 8.87728974431403 -1 0 0
12 1 6.934437543836491 1.718791621722577 1.829588405062353 0 0 0
31 1 5.317918672027852 3.313048492671653 1.731409586887214 0 0 0
150 1 5.187636975242445 1.7445310533645084 3.6903002612903304 0 0 0
177 1 7.08561315923822 3.438668356319743 3.4080639375910082 0 0 0
151 1 5.354377232963024 0.08223616110946239 5.414235988662301 0 0 0
156 1 7.037425292116261 1.8013740973394923 5.46151862467097 0 0 0
175 1 5.210843258591902 3.5604457659965734 5.42682035851297 0 0 0
15 1 12.548545248431882 0.20645893205535865 1.8228601843534324 0 0 0
16 1 10.653353762117657 1.72452777713734 1.8586321156456824 0 0 0
35 1 8.849037694906102 3.461017970546796 1.7293943453665868 0 0 0
39 1 12.575268556675669 3.331937028205232 1.7024998479875384 0 0 0
154 1 8.865704498112276 1.7235080558818863 3.6119927231041924 0 0 0
158 1 12.33682873614214 1.6926285808900803 3.599607736051987 0 0 0
181 1 10.698434480929489 3.495574605963235 3.5076431146386233 0 0 0
11 1 8.751834852939476 21.32648076999485 1.8878649438214918 0 -1 0
10 1 8.685991049239947 1.78200040269735 0.036397600372989516 0 0 0
13 1 10.519752761069595 0.03010455845919996 0.030065619745651667 0 0 0
159 1 12.402266242212841 -0.05326345250941027 5.255475585128414 0 0 0
160 1 10.634786384882958 1.5954806219260307 5.441935819006418 0 0 0
183 1 12.493520128960954 3.453875633511386 5.2910533682819745 0 0 0
20 1 14.419820496736317 1.7211893090775534 1.7087553322708466 0 0 0
43 1 16.017865871340923 3.6462384164281714 1.7732391859168102 0 0 0
161 1 14.38918039804189 -0.055024170674894915 3.5234736701581078 0 0 0
162 1 16.09249928780102 1.6935530323493173 3.514387833371804 0 0 0
185 1 14.42026977323137 3.4576091234474875 3.5624074603037132 0 0 0
164 1 14.338222786650096 1.6725612515770096 5.239207000243676 0 0 0
4 1 -0.05696826882986983 1.788701626121045 1.655064297333284 0 0 0
169 1 -0.05667137694022273 3.485848909055978 3.579394282986246 0 0 0
24 1 17.732968934680173 1.872444612005532 1.7160255180359727 0 0 0
47 1 19.698213189822454 3.5769010329042703 1.7617927458605418 0 0 0
165 1 17.791065281687942 21.275615875455706 3.4890719931014487 0 -1 0
166 1 19.468296368653206 1.725264533018238 3.481641111302126 0 0 0
189 1 17.73799848259663 3.603004672597775 3.470124542945001 0 0 0
23 1 19.534752545657874 7.77992131719557e-05 1.6028757492473285 0 0 0
191 1 19.552492334029772 3.4611616831524343 5.410794473566549 0 0 0
409 1 -0.05474424775660225 17.812673418679083 7.081002263506463 0 0 0
32 1 3.5260217674293477 5.165225710372664 1.5959854746686115 0 0 0
51 1 1.8583392304115511 6.956906913685915 1.650924681416515 0 0 0
170 1 1.752063871033144 5.215564786177881 3.4424431760974024 0 0 0
197 1 3.5691843660587486 7.037265247070253 3.4130212943335394 0 0 0
311 1 19.449077419094593 0.03495788566683444 8.852801494996479 0 0 0
309 1 17.719517976085022 21.326416369031037 7.166512442138227 0 -1 0
36 1 6.957931551375369 5.2062701473093895 1.7193338711186121 0 0 0
55 1 5.4117341591019015 6.983613707080932 1.7311789602084355 0 0 0
174 1 5.174704069623391 5.185350033667992 3.4119792683706844 0 0 0
201 1 7.154940496298054 7.006270183038926 3.4528871664890413 0 0 0
289 1 21.125581031616036 -0.014310320130640264 6.970580562638765 -1 0 0
40 1 10.658348996648815 5.174602411588106 1.6644822994581048 0 0 0
59 1 8.866184852317756 7.01460347948901 1.6385779446375293 0 0 0
63 1 12.32356517438997 7.005882396630974 1.6475911172116002 0 0 0
178 1 8.868438794256598 5.237419486542637 3.542092084278743 0 0 0
182 1 12.504204407148512 5.342664959765848 3.5266202963084883 0 0 0
205 1 10.626813640981652 6.9845489906468865 3.3796954244426782 0 0 0
184 1 10.651538273379508 5.159642178133455 5.3463633278430995 0 0 0
203 1 8.800970002746881 7.048364816185634 5.338435239818537 0 0 0
207 1 12.338103427773573 7.1006572782961594 5.2472943548421975 0 0 0
44 1 14.172578574653116 5.162160520511154 1.6886436640221383 0 0 0
67 1 15.898596064048853 7.171429842486661 1.6957251830353266 0 0 0
186 1 15.981471908756598 5.363320011206668 3.596768887553615 0 0 0
209 1 14.110767085565596 7.201681827878794 3.4359891462752437 0 0 0
28 1 -0.04595838044912881 5.311981602578019 1.5958315406575634 0 0 0
193 1 -0.02588070024652467 7.077215518291796 3.434621601050696 0 0 0
48 1 17.887659962168655 5.487076243321861 1.619468269207743 0 0 0
71 1 19.683175777135197 7.072896875180064 1.756574352161856 0 0 0
190 1 19.5609146284335 5.297755265202087 3.6127972614723984 0 0 0
213 1 17.784533351091845 7.245172012938102 3.4660220313260925 0 0 0
56 1 3.649816265887241 8.905698867240098 1.7611427376544984 0 0 0
75 1 1.919216578179148 10.611789492177108 1.5554682379704152 0 0 0
80 1 3.484336277814133 12.463469241273451 1.5957504576516852 0 0 0
194 1 1.8047650830421775 8.715953384860525 3.2828055835853487 0 0 0
218 1 1.7840142803028474 12.342697584401186 3.4471684244274146 0 0 0
221 1 3.5083410146479754 10.645510033290458 3.410299395221981 0 0 0
224 1 3.547974930832533 12.475524662918646 5.201165056973474 0 0 0
52 1 21.317852798754423 8.867739475359436 1.6651520894210228 -1 0 0
200 1 3.4610523355378597 8.892868514538122 5.1547397766558065 0 0 0
219 1 1.667129221035076 10.694911906964434 5.126479899888353 0 0 0
76 1 0.0828456488286552 12.460072028300049 1.4937877320494317 0 0 0
574 1 19.485999169960834 19.615159432402336 10.624497925769584 0 0 0
429 1 17.765386130356774 17.751629628952244 7.0947925042104405 0 0 0
430 1 19.3351709693678 19.487434632143234 7.013721994422068 0 0 0
60 1 7.076653564502816 8.874563587620363 1.8026405208707403 0 0 0
79 1 5.4354412324595796 10.677333437655268 1.8400787435826769 0 0 0
84 1 7.233970416633532 12.435232134602916 1.7694574229908582 0 0 0
198 1 5.306969138853416 8.812878147220518 3.654062464633096 0 0 0
222 1 5.453997704044669 12.405985372627052 3.5139730062580905 0 0 0
225 1 7.170225313843503 10.70455787963813 3.6347139801288177 0 0 0
228 1 7.010761908084329 12.483585671534906 5.433395876057958 0 0 0
431 1 19.6359712832395 17.86649016702912 8.679051309928173 0 0 0
204 1 7.121958090403748 8.78514142080214 5.210995893773939 0 0 0
78 1 5.450140524203194 12.451734103564803 -0.07207901576385013 0 0 0
64 1 10.518435108621793 8.744305887872594 1.651335177837028 0 0 0
83 1 8.858166245688954 10.61967514778798 1.524903850942796 0 0 0
87 1 12.228853856328795 10.695301788943201 1.6900111670650289 0 0 0
88 1 10.565135054999415 12.428106694311344 1.55155782177017 0 0 0
202 1 8.893308208751131 8.880256629630106 3.460416498324689 0 0 0
206 1 12.233305465690137 8.834805953277021 3.3146936604774364 0 0 0
226 1 8.882281057241178 12.471087347882213 3.464606403870402 0 0 0
229 1 10.548877372909525 10.673400611470974 3.484275235770526 0 0 0
230 1 12.44414181612962 12.356910133218035 3.632532133508947 0 0 0
231 1 12.374519649893085 10.537775421897127 5.421722520988488 0 0 0
232 1 10.474017034829421 12.236834091351234 5.471616935528325 0 0 0
432 1 17.71712356301893 19.52154599114229 8.850402021225387 0 0 0
570 1 16.014856194574328 19.589329167519864 10.611845015500945 0 0 0
68 1 14.007100842240197 8.852366979187247 1.530533125997238 0 0 0
307 1 15.871672771728068 -0.0621246031148317 8.791546054405813 0 0 0
91 1 15.904535321225046 10.594672063236608 1.6952324694562644 0 0 0
92 1 14.229566987408942 12.473362250878624 1.7012367913253579 0 0 0
210 1 15.805399202438855 8.88406475779387 3.515070284032861 0 0 0
233 1 14.066557158161068 10.589300761148587 3.4969160957167853 0 0 0
234 1 15.961136016927002 12.194508601683843 3.4481436913274104 0 0 0
236 1 14.241660789612475 12.38430995144266 5.318346041469267 0 0 0
283 1 16.017285784133506 17.732301558957452 5.280999627987299 0 0 0
217 1 0.10030005563934452 10.587354541097216 3.4067928611987117 0 0 0
196 1 0.09455986124013549 8.882279548944462 5.230645008046267 0 0 0
72 1 17.907688155383376 8.855095841448648 1.7992975254443022 0 0 0
95 1 19.71498117603199 10.70328956305739 1.7310644117824838 0 0 0
96 1 17.716771754084284 12.464176084715325 1.4925696903345478 0 0 0
214 1 19.737712920649592 8.952945486563022 3.529736713309335 0 0 0
237 1 17.816273917009077 10.736403610925041 3.404096196125545 0 0 0
238 1 19.693690727405574 12.404774911088778 3.5813150923410775 0 0 0
240 1 17.830844299154165 12.36509718875054 5.274083325182812 0 0 0
220 1 -0.011843717922097596 12.579286733997385 5.259749981519461 0 0 0
425 1 14.205470847442992 17.68989724277604 7.125993945432455 0 0 0
99 1 1.7764021878959269 14.2322089085088 1.6630765737410478 0 0 0
104 1 3.3719105054291667 16.112136587024686 1.886839335395128 0 0 0
242 1 1.6466864190260102 15.906785403817967 3.41898732991459 0 0 0
245 1 3.54489801038266 14.243230105846465 3.4576378613088603 0 0 0
100 1 21.290491921205614 16.016643687458455 1.6215125416374834 -1 0 0
98 1 1.8254298283582826 16.01917732245368 -0.019455936543026006 0 0 0
101 1 3.5864420516143602 14.195627501899155 -0.05257006980151679 0 0 0
426 1 16.02089320590951 19.38232119997057 6.9821199827920895 0 0 0
103 1 5.229832148484482 14.22150312364961 1.8218461950453486 0 0 0
108 1 7.168294548916385 15.993726897170847 1.830340455013329 0 0 0
246 1 5.351080788625336 15.791143873049785 3.481149687127911 0 0 0
249 1 7.218089756589155 14.128797103271106 3.5013713418567685 0 0 0
247 1 5.308935184140413 14.261840622049258 5.321215542394861 0 0 0
105 1 7.0062720595695085 14.342428380850011 -0.01125479561249984 0 0 0
102 1 5.2051441771348435 16.034337160288814 0.1322786186124823 0 0 0
107 1 8.89933210067069 14.26889112849184 1.7055939504232465 0 0 0
111 1 12.236281129773184 14.05544941914902 1.8163280950886993 0 0 0
112 1 10.402987070008866 16.07128266898829 1.743070195878128 0 0 0
250 1 8.96661472848776 15.932995649408058 3.651044526055305 0 0 0
253 1 10.618973293227102 14.068485943312956 3.537970994355928 0 0 0
254 1 12.323639412749026 15.86351079565486 3.4485677141462348 0 0 0
427 1 16.002358886593164 17.686989735582664 8.798837771363422 0 0 0
255 1 12.358037391613891 14.051055771850722 5.243132382099969 0 0 0
115 1 15.911879237207819 14.152347962108996 1.8129063624727069 0 0 0
116 1 14.210704251452194 15.960167059163306 1.8055750459001112 0 0 0
257 1 14.230206507832756 13.993004900985538 3.5984629031593984 0 0 0
258 1 15.933298524547324 15.895920790265231 3.576185892574077 0 0 0
259 1 16.02040481596331 14.096823556534135 5.288466782342478 0 0 0
241 1 21.2663053791738 14.19413372090998 3.3973316608921578 -1 0 0
119 1 19.52757311770629 14.125573161801345 1.5888133995529607 0 0 0
120 1 17.79678221525431 16.0179018969368 1.7288189400603469 0 0 0
261 1 17.796991084214845 14.05707536401791 3.4711545157189794 0 0 0
262 1 19.554335716102457 15.895290478325022 3.493437020849413 0 0 0
263 1 19.566601809424874 14.088260013171935 5.355827764619252 0 0 0
118 1 19.590600872352795 15.920468634162912 -0.07048414861131538 0 0 0
428 1 14.19572743525816 19.455292128642583 8.796298313775697 0 0 0
3 1 1.6751021463556255 21.233111169169867 1.700994482935815 0 -1 0
123 1 1.6610811330760729 17.785647344207874 1.7303986120582844 0 0 0
128 1 3.5382129116040555 19.543256430769546 1.8764323857807104 0 0 0
266 1 1.538254194665583 19.522153679087616 3.470647771059692 0 0 0
269 1 3.3815041236668 17.738959768146188 3.5623600083168268 0 0 0
267 1 1.5804950401078002 17.769724250186314 5.338208452387301 0 0 0
125 1 3.5327234202724465 17.883029265320644 0.10448911178316755 0 0 0
5 1 3.3994560338344484 21.27578681059382 0.08769154868015822 0 -1 0
153 1 7.087443920423657 -0.06898995389072837 3.695952438135097 0 0 0
7 1 5.362266406867486 21.259380039147004 1.7441342667936646 0 -1 0
127 1 5.344939077233385 17.807435205165547 1.9131338690095703 0 0 0
132 1 6.934398571993511 19.592610304007252 1.9017543584457075 0 0 0
270 1 5.284739915935956 19.51320998176083 3.777604406359267 0 0 0
273 1 6.998757822168568 17.723488497414074 3.5825702742966294 0 0 0
276 1 7.030701755287129 19.375740516273503 5.470788499884397 0 0 0
129 1 6.946038456716463 17.749110157180134 -0.00668652600746103 0 0 0
157 1 10.73383836392582 21.27537590296648 3.5810278778196603 0 -1 0
131 1 8.79984396113358 17.86301180543998 1.8991768453971036 0 0 0
135 1 12.416481666906984 17.930308171601787 1.7452848127305571 0 0 0
136 1 10.5527578467313 19.69808615162497 1.7968320690941935 0 0 0
274 1 8.893200058807745 19.663033354676607 3.76556870484527 0 0 0
277 1 10.780278704459029 17.875650778391176 3.4407563803392773 0 0 0
278 1 12.643193323319888 19.617126858272485 3.4666438516116886 0 0 0
133 1 10.525601521645157 17.76302974916591 -0.06613814139736278 0 0 0
130 1 8.645443534096803 19.500528922993617 0.05996595704500807 0 0 0
134 1 12.283784701458734 19.6540735229039 0.05912393755013817 0 0 0
19 1 16.147007793554714 21.320701967687775 1.692944658283575 0 -1 0
163 1 15.969890033206065 21.264693198452527 5.3048474461755015 0 -1 0
284 1 14.290968301457498 19.627398389462243 5.268329493266578 0 0 0
139 1 15.927619315335097 17.739372053293877 1.7337757053884748 0 0 0
140 1 14.257920804271846 19.63897180554678 1.73488093916657 0 0 0
281 1 14.129422007814865 17.675019264286846 3.603798069305696 0 0 0
282 1 16.09390361184036 19.472481638510565 3.5048577430828174 0 0 0
288 1 17.85499606913072 19.558115619220104 5.181706421455919 0 0 0
265 1 21.272334059861365 17.66045399624658 3.4479657073577745 -1 0 0
124 1 21.28274083212529 19.428425328632848 1.6568557992625779 -1 0 0
287 1 19.565377351109483 17.79707611294736 5.196933204650235 0 0 0
141 1 17.645880834794667 17.624818616333194 -0.05946020516933501 0 0 0
143 1 19.53897582137892 17.699624121151956 1.5903126363407583 0 0 0
144 1 17.852716970492096 19.501636482973716 1.6130084515495695 0 0 0
285 1 17.82843054678245 17.761124860800493 3.5370380207140055 0 0 0
286 1 19.595781556699656 19.488586979522772 3.3641312939722727 0 0 0
121 1 0.016868013680003457 17.634196956174918 -0.03679481159942032 0 0 0
167 1 19.50631232815404 -0.015040064071421 5.191009256193707 0 0 0
565 1 10.516338035775568 17.750856181836717 10.599619843929293 0 0 0
171 1 1.634194320892046 3.4426675921983274 5.333863090881897 0 0 0
290 1 1.5512832205833162 1.6886107018698169 7.08446833464586 0 0 0
296 1 3.491762573869123 1.5260043184030592 8.778429465878686 0 0 0
315 1 1.628684131871629 3.446084369987439 8.869059622232946 0 0 0
317 1 3.502216005137275 3.3491208463486872 7.191000099595569 0 0 0
292 1 21.218556060836615 1.7657212121658616 8.900974553600792 -1 0 0
294 1 5.3247684240441675 1.7790419337553423 7.221828976814794 0 0 0
300 1 7.072505201893323 1.7774313715047612 8.897589318733598 0 0 0
319 1 5.262836500685808 3.56387897586816 9.012109695059667 0 0 0
321 1 6.915114489618064 3.5288847529092724 7.132774238620811 0 0 0
297 1 7.167115218245837 0.023727027013191904 7.2085969595060595 0 0 0
299 1 8.9166141595891 21.33176752545072 8.80386761792427 0 -1 0
179 1 8.881589583886988 3.4007622494876806 5.374637546373883 0 0 0
298 1 8.819839833345888 1.8149171891340474 7.126997679583067 0 0 0
302 1 12.464001130753358 1.6885957796149678 7.029124678750962 0 0 0
304 1 10.612789080708112 1.7871255957578465 8.834368844956314 0 0 0
323 1 8.875918194077073 3.4602002185791667 8.820568475185858 0 0 0
325 1 10.63018972444186 3.442299178717117 7.185127688647386 0 0 0
327 1 12.302847096625248 3.490828540413782 8.962073534500348 0 0 0
446 1 12.480037033906427 1.7607364002254442 10.617283461469214 0 0 0
187 1 16.18810677444158 3.5068417206591422 5.424131398021875 0 0 0
305 1 14.247304220636087 -0.04978298674276953 7.018057358171958 0 0 0
306 1 15.918054200415051 1.7186269868755082 7.1036591063956145 0 0 0
308 1 14.16843357921111 1.7445931501049496 8.727888657273304 0 0 0
329 1 14.214358870569585 3.556353312288755 7.050008364703522 0 0 0
331 1 15.950753202927642 3.5796851715264864 8.839802972190581 0 0 0
445 1 10.663120335408852 -0.049419890724948345 10.551848854883296 0 0 0
148 1 -0.03825653719199096 1.6488251814976869 5.210823668051851 0 0 0
313 1 21.335830563117533 3.5988694519108297 7.130662417227074 -1 0 0
168 1 17.687021068533376 1.741435009947151 5.329526492938581 0 0 0
310 1 19.54115370173985 1.7376991999294455 7.067167085977774 0 0 0
312 1 17.670491094852174 1.7631929097650472 8.88837414791899 0 0 0
333 1 17.820605644186188 3.6160844628250843 7.16837881400362 0 0 0
335 1 19.6041382389444 3.5220669535927898 8.967320884249368 0 0 0
477 1 17.708465390965294 3.4411250547721095 10.62931923400726 0 0 0
454 1 19.448462726526003 1.7531175614859114 10.591581457274613 0 0 0
195 1 1.6660543387318096 7.071941012049161 5.283059786726828 0 0 0
172 1 0.051513138246199075 5.32156050334982 5.182154471656605 0 0 0
176 1 3.3875944435221186 5.180574992489141 5.383474187333485 0 0 0
314 1 1.7784200189257489 5.271661513229787 7.162615259015444 0 0 0
320 1 3.410795440297173 5.2587669424856 8.864053870122845 0 0 0
339 1 1.6874837710021853 7.211421256596593 8.958645158908594 0 0 0
341 1 3.389527693159457 7.079536553765634 7.163183577603248 0 0 0
566 1 12.458700751750364 19.42590514438978 10.580636508305357 0 0 0
316 1 -0.022067369641784927 5.288340408915597 8.956089527700751 0 0 0
337 1 0.004914297618048874 7.07981241519343 7.111597901333072 0 0 0
180 1 7.004634234986304 5.358980254059628 5.333474323274411 0 0 0
199 1 5.130852504399003 6.985764398655895 5.364954005342832 0 0 0
318 1 5.25452626851578 5.2799580280437555 7.1324200724313975 0 0 0
324 1 7.001617924552921 5.199625631677713 8.83330900127772 0 0 0
343 1 5.22310127502072 7.169078059678798 8.82008605706678 0 0 0
345 1 6.938374410480986 7.169940063036911 7.081646868253336 0 0 0
301 1 10.614096546263283 0.01105732348543853 7.09467838730918 0 0 0
322 1 8.672730702260997 5.264131775637269 7.229384383116565 0 0 0
326 1 12.423325217505127 5.317937653089222 7.081246384918308 0 0 0
328 1 10.624751957059352 5.251963228066001 8.91159553467546 0 0 0
347 1 8.826686160368636 6.973581286911694 8.933136739934781 0 0 0
349 1 10.56102554186713 6.937822375899488 7.024589926719872 0 0 0
351 1 12.32218992388859 7.088700419275264 8.784941558725318 0 0 0
280 1 10.626725422756145 19.54268322857869 5.3884605034807045 0 0 0
418 1 8.839813330110234 19.634194286441975 7.210371474648865 0 0 0
211 1 15.886527309412145 7.066777368938694 5.344194956025594 0 0 0
188 1 14.14643057541089 5.2770248826628485 5.342898019323322 0 0 0
330 1 16.086154542971755 5.4206161551823 6.980985575737238 0 0 0
332 1 14.232012640195721 5.254041788909086 8.771553642881736 0 0 0
353 1 14.164845042842392 7.026579903256511 7.113807913963152 0 0 0
355 1 15.980623851724738 7.046175722462351 8.856126447033388 0 0 0
474 1 15.901483668438924 5.3588947688118544 10.627994690006979 0 0 0
215 1 19.535240286378382 7.1936606297025865 5.318961958865682 0 0 0
192 1 17.753604721369342 5.393991789414192 5.304545193632296 0 0 0
334 1 19.648382225652938 5.305644816154062 7.068672544682854 0 0 0
336 1 17.800583485539384 5.354210192448816 8.931701847847012 0 0 0
357 1 17.881910218452482 7.074165502058348 7.1074336067600585 0 0 0
359 1 19.601675068420235 7.097391837335791 9.003220436934507 0 0 0
419 1 8.695009703429484 17.727712114887076 8.818473727624024 0 0 0
338 1 1.738043754874811 8.884336907086283 7.078419114827362 0 0 0
344 1 3.5160137259811997 8.877663199173215 9.103776804217512 0 0 0
361 1 0.11466506832709938 10.636083618816535 7.0575484582765515 0 0 0
362 1 1.8000512939033737 12.370938118681389 7.030524919364418 0 0 0
363 1 1.7492150346240514 10.56966534106172 8.996716581720793 0 0 0
365 1 3.485685265660649 10.541542407962382 7.0259856726314345 0 0 0
368 1 3.4568515595067355 12.46510500585434 8.824805319901692 0 0 0
340 1 21.29300115920288 8.949630837787652 8.892928257477974 -1 0 0
364 1 21.30883886997841 12.331894283719482 8.919487638278534 -1 0 0
223 1 5.453890405306955 10.63691397277501 5.353993768113496 0 0 0
342 1 5.22913945673531 8.85039832998904 6.976912988228559 0 0 0
348 1 7.028136863481701 8.846265821581708 8.88153409793477 0 0 0
366 1 5.1783118184969235 12.342297197632478 7.0661734140155446 0 0 0
367 1 5.133795090538846 10.528768664299324 8.864362396765204 0 0 0
369 1 7.001428072433336 10.590047502083154 7.072703459850839 0 0 0
372 1 6.973050955401429 12.358228719177957 8.8715551649602 0 0 0
421 1 10.604907689872636 17.714321882648683 7.077838478742802 0 0 0
422 1 12.420128546052442 19.66186297502142 7.092779054291587 0 0 0
208 1 10.586231262408285 8.704097870386843 5.138447116581207 0 0 0
227 1 8.748866065081078 10.647941134830937 5.367655815878653 0 0 0
346 1 8.763619634181941 8.619346331017386 7.167900519966362 0 0 0
350 1 12.305437767906056 8.713186534607605 7.070756071448808 0 0 0
352 1 10.580168136262163 8.84909166667653 8.80828124296197 0 0 0
370 1 8.897406718265188 12.471458264994846 7.19124938453334 0 0 0
371 1 8.764899417094943 10.60603537501462 8.823826627343553 0 0 0
373 1 10.600437703222209 10.378735925047891 6.986084243177671 0 0 0
374 1 12.355662796403037 12.354545349840366 6.996023963386804 0 0 0
375 1 12.504103323237896 10.520998909574857 8.682924240775893 0 0 0
376 1 10.619953216635597 12.351534743175533 8.725105832544662 0 0 0
514 1 8.861020161954064 12.405644101770614 10.523011724926675 0 0 0
279 1 12.386326241041575 17.915343848810167 5.4190291684757215 0 0 0
494 1 12.487088296506602 8.92956316807997 10.629172267875417 0 0 0
517 1 10.602963688270629 10.685970910305192 10.55386052406885 0 0 0
212 1 14.097001001293837 8.810708371064305 5.328702607606857 0 0 0
235 1 16.05665501374481 10.473524905268977 5.262691678045218 0 0 0
354 1 16.10166471305967 8.665482853734218 7.0581399418599755 0 0 0
356 1 14.245768908414412 8.776978661183117 8.788639169040223 0 0 0
377 1 14.388734668652067 10.503464387386227 6.96055327455812 0 0 0
378 1 16.086290420711265 12.451538869205779 7.116048093513149 0 0 0
379 1 16.054902136213144 10.69794730135489 8.97213754717465 0 0 0
380 1 14.14191748447631 12.32052848890494 8.750734527804807 0 0 0
498 1 15.986935367247314 8.793405891468819 10.61273592754631 0 0 0
216 1 17.92203877424486 8.951254007387913 5.18493334995011 0 0 0
239 1 19.7638315219696 10.659110866770796 5.374232560332141 0 0 0
358 1 19.55905325544076 8.840621640749 7.054131043510083 0 0 0
360 1 17.800411638240895 8.907653571038965 8.838801173968273 0 0 0
381 1 17.631607928650276 10.615197656407636 7.073279463411206 0 0 0
382 1 19.551517244721076 12.245799209519726 6.993071720044576 0 0 0
383 1 19.51237716717251 10.536612564695314 8.816470999143604 0 0 0
384 1 17.832954972506414 12.360748920524081 8.748300388299223 0 0 0
275 1 8.915088893167052 17.647374578046005 5.283044205050179 0 0 0
243 1 1.689342659152847 14.14276716653292 5.153331903422591 0 0 0
248 1 3.5670305519870573 15.99035153349834 5.24946202389967 0 0 0
244 1 21.253591233027663 16.053387725899185 5.133177972302565 -1 0 0
386 1 1.6837603851096234 15.996717903066534 7.014771509034617 0 0 0
387 1 1.6771171458804335 14.27373557712552 8.892700641012434 0 0 0
388 1 21.308547862901676 16.154786358457635 8.808816632106774 -1 0 0
389 1 3.4232176163050037 14.093828535333987 7.068649696179942 0 0 0
392 1 3.435515196858438 15.97169328748634 8.860030647771124 0 0 0
529 1 21.286712269426445 14.084206311022106 10.593942578463253 -1 0 0
530 1 1.5976385212528714 16.038295681491462 10.627276553317863 0 0 0
252 1 7.03603413484757 15.899110926570165 5.242638064357595 0 0 0
390 1 5.266253004875465 15.949840801711519 7.062015451184051 0 0 0
391 1 5.26047517431625 14.080854310439442 8.811478784894037 0 0 0
393 1 6.974439194687024 14.157620706922508 7.07591938492961 0 0 0
396 1 6.979138435849926 15.849830458072043 8.826947675163863 0 0 0
423 1 12.341115396056589 17.837411155363654 8.924796298992714 0 0 0
256 1 10.721016569141376 16.045098578767067 5.219237009255973 0 0 0
251 1 8.813730898072093 14.210802224505281 5.295250943099443 0 0 0
394 1 8.882630879848007 15.950535154537077 6.943519619534648 0 0 0
395 1 8.776855357939835 14.230788966633467 8.836208881094194 0 0 0
397 1 10.74897754824934 14.20723124765779 6.887243105739095 0 0 0
398 1 12.384897738049858 15.978409980955186 7.023452316501804 0 0 0
399 1 12.405119270956796 14.223411319316591 8.749539952145538 0 0 0
400 1 10.680086332581961 16.03118952885474 8.81538567990077 0 0 0
541 1 10.636100578480868 14.144661943959152 10.510799202468549 0 0 0
260 1 14.082594574806924 15.780638734750378 5.237098355580711 0 0 0
401 1 14.186933044185936 14.05958573974923 7.099131945768957 0 0 0
402 1 16.064560360813353 15.752493193484888 7.144056073637396 0 0 0
403 1 16.10359230697624 14.067444029124294 8.911963025529982 0 0 0
404 1 14.319238954972482 15.945624174566147 8.88133457419579 0 0 0
264 1 17.7659967287599 15.926692574913183 5.335789946258602 0 0 0
385 1 -0.048797017863286385 14.160520602457842 7.0775666711351555 0 0 0
405 1 17.91684007591723 14.168550727917571 7.052299328981604 0 0 0
406 1 19.693373577035416 16.055470417816927 7.071591798411823 0 0 0
407 1 19.605869358681502 14.169926790601318 8.78365219392438 0 0 0
408 1 17.882355067119775 15.979635772143494 8.77874015431241 0 0 0
424 1 10.572709660861795 19.500915815396667 8.776191555637967 0 0 0
155 1 8.884788280970321 -0.03706669569920962 5.470624058066075 0 0 0
268 1 -0.06866176308658034 19.55910169218992 5.286208018001172 0 0 0
272 1 3.4488678359854594 19.41726779711864 5.36551155155401 0 0 0
291 1 1.5420946827098418 -0.056476974966017224 8.849945842560668 0 0 0
293 1 3.4930359619427835 -0.004631971117376565 6.967028060156973 0 0 0
303 1 12.452625586578026 0.022973586418196135 8.83861804512461 0 0 0
554 1 1.7470381892576432 19.65899888930462 10.585410408172406 0 0 0
411 1 1.6513198045428814 17.79610566495606 8.957427040018187 0 0 0
410 1 1.580060997632823 19.48845045330468 7.183048942742152 0 0 0
413 1 3.4541424770186815 17.742804820581988 7.140801269167381 0 0 0
416 1 3.3781480559322805 19.65996794569687 8.787757300919521 0 0 0
420 1 6.981869679922198 19.43998987517132 8.807548548409205 0 0 0
417 1 6.991035151245495 17.642212403521718 7.051359562899233 0 0 0
415 1 5.184461968021659 17.64276867658468 8.736797212564957 0 0 0
414 1 5.240343459253691 19.564301861135476 7.107948131984734 0 0 0
441 1 7.060081008664712 21.255397963876568 10.57662865490044 0 -1 0
295 1 5.230195811408534 21.25125353953522 8.945055987468384 0 -1 0
271 1 5.27886743046701 17.661368970913593 5.405379486458579 0 0 0
561 1 7.006228162764326 17.53623182524595 10.537409913361218 0 0 0
461 1 3.4560158288635563 3.3610353644096973 10.59590332871844 0 0 0
434 1 1.6673013008131856 1.6793360945279965 10.589033738537632 0 0 0
437 1 3.4729530042129273 -0.05485553695850144 10.613473291296435 0 0 0
465 1 7.19315103337435 3.61107965982593 10.585001832798719 0 0 0
438 1 5.37192102543478 1.659564378794908 10.603390153930185 0 0 0
449 1 14.175941901411381 0.008499127000483844 10.479731098100707 0 0 0
450 1 15.817662806912834 1.7433118948510682 10.569863645570955 0 0 0
485 1 3.465388378726199 6.9628192579401125 10.601410815647206 0 0 0
493 1 10.649180621213468 7.130659098009753 10.603806646188639 0 0 0
497 1 14.210120309627989 7.01378596776626 10.588755171046273 0 0 0
506 1 1.713764226991634 12.427113316823274 10.59417975735839 0 0 0
518 1 12.373840512281907 12.298335250634343 10.534341940651101 0 0 0
521 1 14.176942299706441 10.489503220672594 10.588854016540633 0 0 0
525 1 17.769586295152493 10.827653129722188 10.600266970696069 0 0 0
533 1 3.4819353017494934 14.17059184899152 10.608377273370259 0 0 0
542 1 12.480654871812273 15.910948367758735 10.568551694941123 0 0 0
545 1 14.187733969614149 14.137641485393328 10.61738103038651 0 0 0
453 1 17.72860546000821 -0.04089124345073003 10.548724329589612 0 0 0
138 1 16.053664978918825 19.553648742459522 -0.027531033746875266 0 0 0
9 1 6.993765046925226 -0.053016153633169624 -0.007801220097086059 0 0 0
33 1 7.0313125650450266 3.4593462065304186 -0.06748127823184547 0 0 0
37 1 10.673693906717533 3.19712166030742 -0.0018626649130339956 0 0 0
17 1 14.362248536856002 21.31921265902242 -0.047798499817929496 0 -1 0
45 1 17.64156227463613 3.6337947923438354 -0.0494972759391743 0 0 0
53 1 3.537413582979823 7.190911188382129 -0.02787258783844493 0 0 0
30 1 5.2684530529767555 5.309808074901298 -0.045753388100720827 0 0 0
38 1 12.393627569357903 5.206667969628938 -0.019745076987923937 0 0 0
42 1 15.838294617866252 5.4182887044918955 -0.06166550342119592 0 0 0
69 1 17.652590998730815 7.208513779447052 -0.060921801159175004 0 0 0
126 1 5.130927803865959 19.65500720391894 -0.026298087727219865 0 0 0
70 1 19.63801767935201 8.817130563318157 -0.046003636549421856 0 0 0
109 1 10.496207180175766 14.283792711491625 -0.028125993533073768 0 0 0
110 1 12.254418970004657 15.827422828479532 0.026259309040675305 0 0 0
114 1 15.920367418891235 15.992219276429475 0.0856748915514487 0 0 0
440 1 3.5820275074588235 1.6837530397495717 12.356027923188288 0 0 0
459 1 1.7478067122187864 3.4236913569167826 12.468034867209933 0 0 0
844 1 21.331808207826526 19.530589005907984 19.637934937337874 -1 0 0
578 1 1.6748258700913954 1.7106919864439123 14.166187334797671 0 0 0
605 1 3.486291830740209 3.515003893710127 14.175475621231993 0 0 0
700 1 -0.04726067693000857 19.51059146665076 15.939003154223398 0 0 0
719 1 19.589963899841358 17.753975335019 15.988597865165987 0 0 0
579 1 1.68136152685306 -0.045702945328121955 15.996861181953777 0 0 0
444 1 7.030842757083256 1.8826196185113218 12.384200235109331 0 0 0