LAMMPS data file via write_data, version 29 Oct 2020, timestep = 300000

864 atoms
1 atom types

-0.24713056876488615 21.511130568765942 xlo xhi
-0.24713056876488615 21.511130568765942 ylo yhi
-0.24713056876488615 21.511130568765942 zlo zhi

Masses

1 58.933

Atoms # atomic

8 1 3.5290630108367584 1.5119874961564486 1.5309922979428126 0 0 0
27 1 2.0254800942996196 3.5096153309562768 1.513973767640062 0 0 0
146 1 1.5953560868857195 1.5251374973905434 3.0905858930440573 0 0 0
173 1 3.4676016000906875 3.399447080148102 3.3185939395062007 0 0 0
169 1 -0.014703587906933407 3.665502005728021 3.298868150963745 0 0 0
94 1 19.5645889376989 12.329886915925544 -0.10335846832947665 0 0 0
145 1 21.507593529699925 -0.21372323445376346 2.96860047925189 -1 0 0
12 1 7.118937928928067 1.7695001678256146 1.5637668216346097 0 0 0
31 1 5.230331283185717 3.5373956230606103 1.5503899576569393 0 0 0
150 1 5.331593783198773 1.7825279030579613 3.472921898303363 0 0 0
177 1 7.161387310291973 3.708238503069138 3.2090669296841705 0 0 0
156 1 7.11044352711309 1.6613608993800046 5.082662787282587 0 0 0
10 1 8.980311256134275 1.740957554750449 -0.1783626975385348 0 0 0
311 1 19.48655381818226 -0.15286760042995018 8.6723943148321 0 0 0
35 1 8.971610416956048 3.5154251785971584 1.5852602963816522 0 0 0
154 1 8.6599569232646 1.8202063652966576 3.5103496294790744 0 0 0
16 1 10.610383560170067 1.5914678071672783 1.802951672721334 0 0 0
181 1 10.582899630311621 3.479024327575566 3.561799707962328 0 0 0
158 1 12.329910650953405 1.6343304269065124 3.7956280919709764 0 0 0
39 1 12.329609834197646 3.5029800989758386 1.7906385273760508 0 0 0
73 1 21.419695574717323 10.349805817975446 -0.10556629032107859 -1 0 0
11 1 8.752270831789795 21.509892533937826 1.7719045386662993 0 -1 0
183 1 12.30986106991851 3.3977837096297048 5.109917039540539 0 0 0
160 1 10.343563189377205 1.4960971614677383 5.144382953675827 0 0 0
20 1 13.946313121175788 1.3205027744568654 1.7620022710304792 0 0 0
43 1 15.72145694183882 3.426765617275443 1.7398639064263945 0 0 0
162 1 15.82723960003557 1.5636045100108324 3.3603947818487123 0 0 0
185 1 14.180187752909449 3.2896826012479012 3.442662226957117 0 0 0
19 1 15.583639801417748 -0.1866676479279872 1.3837369108018915 0 0 0
164 1 14.26082098736936 1.3305826624773207 5.019162703855013 0 0 0
53 1 3.153126186800149 6.967624437408636 -0.11534818922751286 0 0 0
4 1 -0.17299838173439064 2.14739357493402 1.4741503664403506 0 0 0
309 1 17.919642970505706 21.436852597833713 7.006439890609397 0 -1 0
289 1 21.46209572926019 -0.05906372508697899 6.8551543056461455 -1 0 0
189 1 17.57019306490475 3.3460510721897485 3.3239575807723027 0 0 0
24 1 17.5045257029323 1.2841462282212246 1.786960649599226 0 0 0
47 1 19.55201801303187 3.3223038565507053 1.77086016470256 0 0 0
166 1 19.34736938258348 1.6102608759397339 3.3080529324102748 0 0 0
191 1 19.463770506996205 3.4519649437830715 4.8734511169349055 0 0 0
165 1 17.380123202898268 21.252626929720005 3.257672234558064 0 -1 0
287 1 20.030125542045376 18.180800463700635 5.130023439588006 0 0 0
168 1 17.594357719830732 1.3080326500624413 5.212872305546841 0 0 0
167 1 19.546646846911898 -0.15544308988924627 5.031298599083832 0 0 0
32 1 3.4233610530207472 5.238317367358196 1.630041847709271 0 0 0
51 1 1.3699908320867118 7.130375532415867 1.8452935195098354 0 0 0
170 1 1.7144003677787851 5.1777438093102015 3.246106244146821 0 0 0
197 1 3.450049782619588 7.041661178169054 3.3443189095314056 0 0 0
28 1 -0.2249658020471666 5.344209841564004 1.3450863000273245 0 0 0
193 1 21.50704071332431 6.984025602500941 3.5745831366062966 -1 0 0
176 1 3.171897047677161 5.229177311076997 5.123583360290247 0 0 0
90 1 15.614585900665348 12.494849952493796 -0.1227668805051473 0 0 0
36 1 6.9510535925059775 5.435677486808643 1.4517218383055135 0 0 0
55 1 5.175387031198269 7.002280722196188 1.739441619591851 0 0 0
174 1 5.332001705734293 5.497626111455426 3.5120805477736705 0 0 0
201 1 7.043432644836221 7.180563908214654 3.3752296985292025 0 0 0
490 1 8.964771245704679 8.937072071919774 10.575092152595424 0 0 0
178 1 8.85253904981307 5.370091381011116 3.496267781002595 0 0 0
59 1 8.686217989814836 7.271532893548512 1.3378025700307947 0 0 0
40 1 10.535764893893004 5.637029188695037 1.7944888125469114 0 0 0
205 1 10.478165092624694 7.3618180319536854 3.383676792484105 0 0 0
63 1 12.272290294634322 7.018100002680602 1.856102643549272 0 0 0
182 1 12.425263750100951 5.220203242202249 3.415045492181334 0 0 0
184 1 10.588390919740204 5.5038248871860365 5.328876307469488 0 0 0
117 1 17.69071971671665 14.210907594872761 -0.1997991307092531 0 0 0
207 1 12.29872949799983 6.966983456055022 5.286297532831889 0 0 0
22 1 19.754597135145566 1.5967398963308927 0.09504417099843065 0 0 0
33 1 7.266533156634856 3.320404846632777 -0.18721560336253018 0 0 0
44 1 14.020066384267778 5.4196374175978965 1.5415776340355014 0 0 0
67 1 15.918611856908415 6.92326686555718 1.573785800161002 0 0 0
186 1 15.997506044816673 5.420205473838861 3.4890511059767504 0 0 0
209 1 14.28058047323218 6.885720659264727 3.6172886121502232 0 0 0
211 1 16.537472698096067 6.749826291160158 5.384380907596217 0 0 0
429 1 18.360325077366312 17.780843221076843 6.984483005959297 0 0 0
430 1 19.758031356325766 19.84258255329238 7.014844162831214 0 0 0
48 1 17.929316889373325 5.316016687736885 1.598341406985375 0 0 0
71 1 19.692099635569193 6.891453029173669 1.2812797098221718 0 0 0
190 1 19.62504918038797 5.269981568418237 3.3050033693171077 0 0 0
213 1 17.846685350817808 7.139660031751088 3.2768614257575024 0 0 0
192 1 17.99195269004767 5.031229712501023 4.978728235577302 0 0 0
215 1 19.714039028446052 6.818676732960119 5.179446396380809 0 0 0
172 1 0.003956146767862767 5.175285599011391 5.4378916944972175 0 0 0
194 1 1.920083599651547 8.601505553275723 3.5239216725359226 0 0 0
56 1 3.5298766742687993 8.737818685994611 1.6650024673810482 0 0 0
75 1 1.6064647617172976 10.544718654711431 1.5024500982507534 0 0 0
221 1 3.28950043213539 10.546718272878488 3.5128692981092926 0 0 0
218 1 1.3172905180354235 12.251805840203655 3.237703243673419 0 0 0
80 1 3.3045882152560377 12.331752379933494 1.8209118589841866 0 0 0
217 1 21.4464783536051 10.56376835429876 3.294105630310799 -1 0 0
200 1 3.5270785091975965 8.833963982929134 5.331549229946129 0 0 0
76 1 21.159314250552338 12.487067492421776 1.6417820607833513 -1 0 0
431 1 19.801453197297683 17.993857742415905 8.81333727584408 0 0 0
432 1 17.683384777221 19.742923666299177 8.669849364875981 0 0 0
198 1 5.242454495555893 8.9513767519968 3.415400190105485 0 0 0
60 1 6.450618270760231 8.84497548971493 1.3431006700173516 0 0 0
79 1 4.917716932297517 10.695007226240758 1.3893139816670703 0 0 0
225 1 6.525196078946762 10.641882069769672 3.3616462167929075 0 0 0
84 1 7.184379662586266 12.24107869443649 1.6503362298139483 0 0 0
228 1 6.996597018140183 12.836415853575858 5.494799563179645 0 0 0
204 1 6.819141483397614 8.969221307385052 5.387611394660888 0 0 0
222 1 5.027091404209745 12.333088922801624 3.6247815669684753 0 0 0
412 1 21.147478811368053 19.79627629516763 9.250980341522732 -1 0 0
206 1 12.539976726581633 8.853143720858327 3.7639375165423328 0 0 0
64 1 10.717978122025778 8.703370962401504 1.3185590407153165 0 0 0
202 1 8.682714605667375 8.80328622284996 3.119835855591355 0 0 0
83 1 8.965412502683371 10.32568846833624 1.2004927557935412 0 0 0
229 1 10.677283601158496 10.354081877339347 3.231334894572321 0 0 0
87 1 12.299237283465521 10.506509265152324 1.6094426287862216 0 0 0
230 1 12.042226065640712 12.346589643255808 3.0620512021555295 0 0 0
88 1 10.35212955544542 12.15344883515033 1.5297968848524441 0 0 0
232 1 10.558285841164151 12.279908649915265 5.305928901544954 0 0 0
227 1 8.472760347528148 10.4497995508369 4.957152438727025 0 0 0
226 1 8.792249730307713 12.188725293568952 3.311288139681461 0 0 0
307 1 15.914194885943113 21.37129652263834 8.607746054243606 0 -1 0
231 1 12.409630528369483 10.74169996281132 5.245199555623824 0 0 0
68 1 14.063521576558989 8.7638069085942 1.6621797037124384 0 0 0
210 1 16.02011130971593 8.625075375819646 3.513153288199466 0 0 0
91 1 15.602272381537578 10.680048515663474 1.3153210269246918 0 0 0
233 1 14.24542336096164 10.36475928329109 3.5361082331384375 0 0 0
234 1 15.954262586309229 12.422441056090902 3.3611167332397174 0 0 0
92 1 14.026069797530935 12.368450521292077 1.7672859952128963 0 0 0
236 1 14.173444551820124 12.554452979475938 5.243017390439736 0 0 0
163 1 16.02494888800173 21.44323505470922 5.286888143000567 0 -1 0
86 1 12.504156037545103 12.413090380326638 -0.09541547269118075 0 0 0
52 1 21.383769012546033 8.798344739381633 1.7600170010118985 -1 0 0
214 1 19.738675664729314 8.751078656065516 3.6665331668288563 0 0 0
72 1 17.679410952791734 8.588922424045686 1.5418434384827295 0 0 0
95 1 19.412282768562754 10.586304199658963 1.6034599455998084 0 0 0
237 1 18.014116338259853 10.574877521212445 3.6131668172511566 0 0 0
96 1 17.65389559890877 12.775843872263737 1.6733705608970018 0 0 0
238 1 19.5363737799831 12.398678767247064 3.3227928565493716 0 0 0
216 1 18.030304104388563 8.856479466522606 5.434505413729002 0 0 0
45 1 17.9090158790099 3.18875474624362 0.027272463134862812 0 0 0
93 1 17.7511223636955 10.483072086860009 -0.1406079479633522 0 0 0
102 1 5.200223029196508 15.747068344783127 -0.09000650105074076 0 0 0
99 1 1.5022182934733237 14.184586368912798 1.3146102981304721 0 0 0
104 1 3.131791659610454 15.808796555970849 1.4017943581929566 0 0 0
242 1 1.5629113021472425 16.045686828496002 3.2205817933707417 0 0 0
245 1 3.4181322676230765 14.286596986047922 3.43807880083773 0 0 0
244 1 -0.18264891609595418 16.200427782900476 4.911546997494283 0 0 0
248 1 3.2138552151524817 16.341379888724482 5.436276597037948 0 0 0
41 1 14.136860621713756 3.0902272522428103 0.1984815727556447 0 0 0
50 1 1.7434566048250757 8.851586998742226 0.11876830634636837 0 0 0
103 1 4.973516345636046 13.764641799807482 1.8584819750323325 0 0 0
108 1 6.51988119274332 16.138760344211754 1.4540755967492174 0 0 0
246 1 5.063336517743711 16.035286078158407 3.4191203552002802 0 0 0
249 1 6.959332468511078 14.19310337492463 3.032472723906973 0 0 0
252 1 7.070721886323879 15.96116108227526 5.144892187073891 0 0 0
107 1 8.924658231687292 14.258983260898123 1.251472308761882 0 0 0
250 1 8.797750001822893 15.985812125149996 3.1093579663497395 0 0 0
112 1 10.618406873943409 16.086035742627452 1.320151370371849 0 0 0
253 1 10.682878501342262 14.308722342003065 3.281065105555458 0 0 0
111 1 12.630281259866301 14.590532822191307 1.6575490410511007 0 0 0
254 1 12.474665666983517 16.203431473401984 3.5854520583994858 0 0 0
255 1 12.522467995319511 14.26766158847043 5.199899383455622 0 0 0
251 1 8.778770745271123 14.326991487473515 5.164027393419139 0 0 0
115 1 15.916879306240636 14.370911996228118 1.6587274223194526 0 0 0
116 1 14.179808063992233 16.355811363364182 1.4346578259425562 0 0 0
257 1 14.190107359671158 14.147205144269444 3.486620035138812 0 0 0
258 1 15.894825063572226 16.275268840426925 3.2073967939706804 0 0 0
259 1 15.960338551628256 14.467150431841917 5.01130489968082 0 0 0
260 1 14.301883611161568 16.053473136364886 5.1455608129446855 0 0 0
425 1 14.460666454688226 17.818288687006678 7.125596634500167 0 0 0
241 1 -0.12967636365820662 14.561343077101176 3.1862239560965646 0 0 0
100 1 21.263937657638934 16.1922629133515 1.3422335904053726 -1 0 0
119 1 19.778994356672378 14.278350250604646 1.281855363794719 0 0 0
120 1 17.818554771034812 15.831154033503696 1.69275632459576 0 0 0
261 1 17.959614553395973 14.265472815277937 3.4591417199261687 0 0 0
262 1 19.829315420772517 16.14656555675154 3.31266560932687 0 0 0
263 1 19.982305179047167 14.364646227745311 4.907618774159312 0 0 0
283 1 16.110762974301544 17.88125701638446 5.239202998016537 0 0 0
486 1 5.288264135735823 8.777066162948461 10.595269842496405 0 0 0
450 1 15.962460492038824 1.4463638292129732 10.588659019550123 0 0 0
3 1 1.7795210200476266 -0.21116277359706714 0.946759538215961 0 0 0
149 1 3.6218761695697883 0.05941459062938753 3.401653566425939 0 0 0
147 1 1.5327727272418763 -0.09059624488698853 5.098820650706526 0 0 0
123 1 1.6132925897705013 17.906195045479613 1.6163495958193546 0 0 0
128 1 3.3073252134599755 19.709018759216647 1.5457963567043147 0 0 0
266 1 1.5275881048081092 20.111802437449455 3.285773572001134 0 0 0
269 1 3.5546036176323046 17.82279442834468 3.5866129645401923 0 0 0
295 1 5.259630526542698 0.041071221529286106 8.702895905314698 0 0 0
124 1 -0.1000627097719669 19.87322114014998 1.255528610250012 0 0 0
7 1 5.58794623113458 0.06464980542805054 1.3673167398154338 0 0 0
153 1 7.032039651535776 -0.07273672960999245 3.1984500177722146 0 0 0
127 1 5.02962442991415 17.913554211354956 1.6259854197989512 0 0 0
132 1 6.757610593379427 19.822563983908438 1.6587303226699293 0 0 0
270 1 5.238850084341631 19.80554276247703 3.2025318503280076 0 0 0
273 1 6.808824637346862 17.6879701308647 3.201184555134095 0 0 0
271 1 5.0041106862172064 17.816599709608703 5.1431294731428405 0 0 0
426 1 16.315124607447608 19.663766656026716 6.725235571632074 0 0 0
427 1 16.41063949378747 17.787741133815224 8.821916791148064 0 0 0
428 1 14.136351050719895 19.597596645432716 8.868330102009242 0 0 0
155 1 8.58350901714329 21.107420160779466 5.128924935027502 0 -1 0
157 1 10.4452145994061 21.413149712014764 3.438158145144082 0 -1 0
274 1 8.532512046418244 19.35772735307848 2.983510853612722 0 0 0
131 1 8.752386268511719 17.863318473432173 1.5215839458008678 0 0 0
136 1 10.72285617174804 19.762506824988996 1.5502521555237907 0 0 0
277 1 10.57702305888489 17.933199372566285 3.267020598070671 0 0 0
135 1 12.34836963222219 17.77372817869813 1.6463629166855043 0 0 0
278 1 12.443374375283131 19.612840607335542 3.4142754125129153 0 0 0
159 1 12.271079893481476 21.360046530789482 4.924686335187615 0 -1 0
161 1 14.605389491670971 21.46165964234777 3.431146750714432 0 -1 0
15 1 12.352839386482133 21.498882373922797 1.6975463132685775 0 -1 0
284 1 14.30121326870222 19.534222480601244 5.279003184608328 0 0 0
139 1 16.21714737104503 17.691805725849882 1.751104650427964 0 0 0
140 1 14.45495453225157 19.638544579321916 1.5827899756484576 0 0 0
281 1 14.117561081536811 17.982572599981317 3.3737040707144974 0 0 0
282 1 16.058554512694386 19.41120376163513 3.4649297985736274 0 0 0
305 1 14.24778822020736 21.208488611816797 7.2071614961225805 0 -1 0
23 1 19.57607971963047 21.491874610984276 1.5510751390673148 0 -1 0
288 1 17.882665899419408 19.541393484834856 4.96601282473338 0 0 0
265 1 -0.16476527700865545 18.27021672488921 3.144019806363683 0 0 0
143 1 19.338613855746374 17.81694932958826 1.553644165376651 0 0 0
144 1 17.879935786956082 19.672894936604514 1.5165732783746444 0 0 0
285 1 18.209607696247673 17.905523955459437 3.5769519116510557 0 0 0
286 1 19.851261222976014 19.74315324567528 3.1782776152880468 0 0 0
424 1 10.47996776950915 19.536765470379883 8.772978764931798 0 0 0
268 1 -0.22115195145556044 20.263996134460996 4.961323749210543 0 0 0
152 1 3.115295888964754 1.4127303637957658 5.077002080300913 0 0 0
171 1 1.773210358901419 3.6023478294083753 5.062782798231894 0 0 0
148 1 21.262928804033052 1.77960748326596 5.054620724404066 -1 0 0
290 1 1.9019499452793172 1.7545879645568188 6.954725604863526 0 0 0
296 1 3.377733844216944 1.5145841704987117 8.79915548593782 0 0 0
317 1 3.4168481447773305 3.665326750888973 7.12861532014099 0 0 0
315 1 1.817456289705638 3.3098370604928866 8.891230092756174 0 0 0
291 1 1.599234308700106 21.467895329315017 8.85518755762033 0 -1 0
175 1 5.263874243624424 3.544508945553897 5.338532857441022 0 0 0
294 1 5.0637192358137275 1.6961735384622538 6.894264137171275 0 0 0
300 1 6.895201227723854 1.6130069179432283 8.660261056529299 0 0 0
319 1 5.153441382505597 3.5446899849535214 8.782960333525535 0 0 0
321 1 6.8010892281068696 3.420402778848903 7.211339166023947 0 0 0
297 1 6.689974273466998 21.40478625082894 6.978367729544474 0 -1 0
299 1 8.5629562325668 -0.23310128562754073 8.712951414281509 0 0 0
179 1 8.826277319819312 3.6356475677329625 5.2005988591336925 0 0 0
298 1 8.630637347902098 1.5969378265428649 7.077803732125571 0 0 0
323 1 9.038616365905789 3.470937473142504 8.853907176261892 0 0 0
304 1 10.658912280366867 1.5107587036631676 8.73836965904859 0 0 0
325 1 10.761351168655715 3.3099034702673715 6.8507722428339815 0 0 0
327 1 12.374926054474853 3.128667204234376 8.814871617359627 0 0 0
302 1 12.538341295229026 1.4437708323817224 6.9768951233083305 0 0 0
303 1 12.498122845134397 21.461648429290705 8.850648350371845 0 -1 0
187 1 15.697107465881524 3.529080565693324 5.002559501471437 0 0 0
306 1 15.783482292352398 1.6201668613640923 6.962942852165173 0 0 0
308 1 14.161686642084824 1.5184285539690459 9.02672766312378 0 0 0
329 1 14.318762422014265 3.270769088791644 6.950997798564794 0 0 0
331 1 15.935399862652579 3.357467213061665 8.495123013888112 0 0 0
151 1 5.370571884830042 0.11728256860480002 5.1468904807251805 0 0 0
510 1 5.2868353251071705 12.378026668022821 10.415667045800493 0 0 0
292 1 21.48799445947318 1.6888905633512754 8.766737453098415 -1 0 0
313 1 -0.0992501818033773 3.0869851092045213 6.9454298349977 0 0 0
310 1 19.439437696355263 1.4897568061378845 6.8530082050668275 0 0 0
312 1 17.779185627410115 1.5934568210930515 8.625334501865074 0 0 0
333 1 17.7227475504856 3.3398165715059536 6.734449001773994 0 0 0
335 1 19.740843760733014 3.718330931248703 8.819546307275607 0 0 0
477 1 17.707043058307626 3.4832728137159554 10.34060770285812 0 0 0
195 1 1.8106804584810865 6.955232340503938 5.311270059114491 0 0 0
314 1 1.6463142381191327 5.074252741400215 7.323867508870003 0 0 0
320 1 3.1572027825101885 5.556683316134516 9.226136912691183 0 0 0
339 1 1.0919433504028442 7.085369070701882 8.795316001513951 0 0 0
341 1 3.4774800775304926 6.846374511949579 7.30263638399312 0 0 0
337 1 21.290602048208072 6.858458110536784 7.015529035660704 -1 0 0
316 1 -0.19613477817955527 5.1342679454277 8.942875599030934 0 0 0
413 1 3.1585996225399855 18.266424873244105 7.1317364902448 0 0 0
275 1 8.695115471277822 17.813266223966103 4.88850106727941 0 0 0
199 1 5.116454036137861 7.009303711399186 5.256844191896626 0 0 0
410 1 1.5317605425193306 19.98023010225466 6.836777290548655 0 0 0
180 1 6.937093605199432 5.149433626727906 5.378433881346952 0 0 0
318 1 5.0984559537014835 5.250453808483497 7.210862655039229 0 0 0
324 1 7.243234794872395 5.262379462591477 9.047954279589865 0 0 0
343 1 5.265837793781138 6.936996954897688 8.920092677285696 0 0 0
345 1 7.453640601974835 7.115186814411358 7.049735516109244 0 0 0
267 1 1.5194091569444674 18.217084606400306 5.312903772569986 0 0 0
203 1 8.703653901720509 6.954696773362945 5.227426603117338 0 0 0
347 1 8.99421484252663 7.280498827366183 8.836767011090057 0 0 0
322 1 8.877757016481366 5.030605967506419 7.009428026722211 0 0 0
328 1 10.691028675563013 5.120201735080692 8.73247291094217 0 0 0
349 1 10.446661006032762 7.42802565200917 7.063839682016891 0 0 0
326 1 12.380822321131662 5.309547179371945 7.098551406758857 0 0 0
351 1 12.30178927648037 7.0176646580214035 8.96963643863387 0 0 0
70 1 19.527236991016125 8.787207857756211 0.10599700052817546 0 0 0
422 1 12.402847817379477 19.498740868415588 7.1577684600611065 0 0 0
188 1 14.204630245688978 5.039044770899914 5.411236830266897 0 0 0
5 1 3.9100917764216083 21.428020337323332 -0.2403639045567559 0 -1 0
272 1 3.449615120884277 19.84309558468641 4.954291874671787 0 0 0
330 1 16.042243308482412 5.386865094888242 7.218804165189098 0 0 0
332 1 13.97770450329732 4.97885130597527 8.626614846875512 0 0 0
353 1 14.22746840227762 7.2251577609618245 7.085435636028009 0 0 0
355 1 16.036367961846786 7.159342435999456 8.701217757754254 0 0 0
334 1 20.029693684875966 4.799405844942055 6.874345346289943 0 0 0
336 1 18.043698412143556 5.32912790010024 8.873989150883023 0 0 0
357 1 18.303374168538255 6.968568484923972 7.182128378461826 0 0 0
359 1 19.893259700901012 6.93844307197519 9.369848791554842 0 0 0
301 1 10.615337834877156 21.16290132782042 7.192431220541286 0 -1 0
529 1 21.435560153971707 14.272127541804903 10.343897352183175 -1 0 0
224 1 3.14447212536987 12.360205631587203 5.088866632036511 0 0 0
219 1 1.4313730667071103 10.62291630568285 5.109845045754935 0 0 0
338 1 1.6066515735595936 8.723105998646759 7.084214676560143 0 0 0
344 1 3.651532376114204 9.055331139334262 8.846141078092217 0 0 0
363 1 1.5757852023401049 10.308054178078564 8.929127450979637 0 0 0
365 1 3.177312407993206 10.791413482166215 7.083502385375319 0 0 0
368 1 3.249548180828335 12.442999826758138 8.779912301838001 0 0 0
362 1 1.4700449244653386 12.30596958173077 7.321948176434716 0 0 0
220 1 21.25132057680145 12.523083884989559 5.028984114370946 -1 0 0
364 1 21.179272656590165 12.463512599773313 8.80199433946743 -1 0 0
423 1 12.613174262720495 17.4092429136117 8.808439215051463 0 0 0
409 1 21.37540492121506 18.097767442142 6.984235325439243 -1 0 0
411 1 1.576834720489281 17.95764241891949 8.975965565327773 0 0 0
223 1 4.980999020489025 10.68955991446357 5.321571275065137 0 0 0
342 1 5.321566658149052 8.68691289585377 6.990387557558389 0 0 0
348 1 6.815408635360005 9.151453827137752 8.876343453049737 0 0 0
367 1 5.117164317210674 10.819627283208437 8.547289943733452 0 0 0
369 1 7.2213312843053945 10.811958330180229 6.8950832687846155 0 0 0
372 1 7.238846871362822 12.46959281573181 8.956922175937036 0 0 0
366 1 4.946825487250707 12.574233792797907 6.844750028223836 0 0 0
208 1 10.768933712170137 9.006522243800905 5.447168772626434 0 0 0
280 1 10.644463623725972 19.66157254678236 4.944446835797553 0 0 0
279 1 12.362385402895532 17.835743640770573 5.283119490557488 0 0 0
370 1 8.922414202351208 12.803950021422036 7.105910983924107 0 0 0
346 1 9.052569574543893 9.194687229419744 6.987884423194456 0 0 0
371 1 8.646610138114504 10.604650920079688 8.834957882388112 0 0 0
352 1 10.589248373231737 8.99619569439308 8.801525278105558 0 0 0
373 1 10.712395529269973 10.726369137164896 7.236642755400104 0 0 0
374 1 12.25573758217602 12.36768370030074 6.866404194774946 0 0 0
376 1 10.756683192615185 12.18126400018932 8.74682290604571 0 0 0
375 1 12.81214135609614 10.750200648756795 8.701129332515594 0 0 0
350 1 12.664262649938564 8.86050375037727 7.075574654949112 0 0 0
74 1 1.2796469996020379 12.362546561462857 -0.15308467290402816 0 0 0
421 1 10.762882415944631 18.106283582462098 6.823349689998562 0 0 0
473 1 14.163184386637658 3.100979962920604 10.595245845109387 0 0 0
105 1 6.828615463711952 13.825527821632546 -0.10445283274594597 0 0 0
212 1 14.501620901081186 9.049996005397128 5.299940199824246 0 0 0
419 1 8.839916500439593 17.42184519039006 8.803374227795842 0 0 0
235 1 16.22341131760544 10.50605733785287 5.387763874113151 0 0 0
354 1 16.17116133868997 8.807549217446438 7.143088906373379 0 0 0
356 1 14.405960563345015 9.013646240004096 8.933351321539718 0 0 0
377 1 14.262860288166852 11.061196860299333 7.001690061051015 0 0 0
379 1 16.481464765105514 10.71798823125666 8.829365138589978 0 0 0
378 1 16.299556762968876 12.509172064121774 6.80629875457767 0 0 0
417 1 7.102219508869289 17.554236807736686 6.857613293577826 0 0 0
196 1 -0.01613524815556075 8.881058585289036 5.310215350187635 0 0 0
239 1 20.06137876410682 10.400456584297949 5.3140563588516345 0 0 0
418 1 8.739551294343796 19.530641243176674 6.977044202814263 0 0 0
340 1 21.374097342521626 8.716975229174299 8.783719933147438 -1 0 0
361 1 21.373395673803724 10.604327587502802 7.233820820112797 -1 0 0
240 1 17.776330942199294 12.535445325200872 5.160669434898797 0 0 0
358 1 19.820174541371664 8.787659964212356 7.252398880097219 0 0 0
360 1 17.874864972125003 8.698180039736139 8.834500893994662 0 0 0
381 1 18.098942432996665 10.734879656128516 6.857180040037764 0 0 0
383 1 19.61188769536639 10.741479943779826 8.752196024840357 0 0 0
382 1 19.85204004543487 12.444562514059253 6.840281178654674 0 0 0
415 1 5.568685550000091 17.77021889919162 8.634220156141934 0 0 0
276 1 6.854061525414013 19.5712910898229 4.953580486055331 0 0 0
420 1 6.977747150688014 19.63287457377072 8.94422189680457 0 0 0
243 1 1.333032377634186 14.376667276825259 4.9163486141413495 0 0 0
386 1 1.3584342204191808 16.247579151633744 6.956790435175167 0 0 0
387 1 1.7856818682914795 14.417114217936378 8.669246936889957 0 0 0
389 1 3.1191468624281584 14.114546243286311 6.772516525611652 0 0 0
392 1 3.522208248709713 16.280195849493985 8.72712490927922 0 0 0
388 1 0.06899089034710926 16.221402781290678 8.750075843779722 0 0 0
247 1 4.914805052313119 14.404226722772105 5.605945867812528 0 0 0
396 1 7.169397231921715 15.814421551728119 8.728817727734725 0 0 0
393 1 7.076735939204644 14.290253092712826 7.166534583929667 0 0 0
390 1 5.198830419688924 16.19965270120123 7.118837900334978 0 0 0
391 1 4.8504494941883864 14.44535722758789 8.586915603661835 0 0 0
256 1 10.611415916107935 15.821073937570288 5.103469412736156 0 0 0
394 1 9.023671262460633 16.287423491332852 6.778157052362238 0 0 0
395 1 9.188189674601608 14.349304838416495 8.887144193098495 0 0 0
400 1 10.873432095265034 15.893747027625457 9.039788171240906 0 0 0
397 1 10.614485162048378 14.449307423853536 7.00570411688223 0 0 0
399 1 12.321627831765158 13.924492898329925 8.85153704651507 0 0 0
398 1 12.539402032202792 15.911299256067588 7.003204116511571 0 0 0
380 1 14.629493463062943 12.50901257201989 8.761579452866505 0 0 0
402 1 16.234945633974455 15.908602986060773 7.144730973177337 0 0 0
403 1 16.194824124823946 14.033354050490752 8.652031934029731 0 0 0
404 1 14.251394196195267 15.946816836550811 8.572528442663074 0 0 0
401 1 14.328476134529932 14.380445092337773 6.862371632822609 0 0 0
264 1 18.26610345524231 16.208258000710124 5.24814837658782 0 0 0
384 1 18.14355253920528 12.575760139353797 9.034068709277612 0 0 0
385 1 21.33834710952577 14.478572154977018 6.986014576724897 -1 0 0
405 1 18.26398205532776 14.069209073262737 6.618747685017165 0 0 0
406 1 19.941895339035 16.245693783723432 7.198460011149737 0 0 0
408 1 17.830271664234246 15.861799412588981 9.004799826904655 0 0 0
407 1 19.527345586239093 14.38038096543513 8.815487480886688 0 0 0
414 1 5.047038847708917 19.512153304912978 6.826618947006003 0 0 0
293 1 3.3472384077536947 21.36578317764281 6.7278192490619615 0 -1 0
416 1 3.572605146971417 19.66869718659592 8.853500734725817 0 0 0
49 1 21.456528757567707 7.243246599258427 -0.16613098779857494 -1 0 0
522 1 16.632261413743763 12.639904382788346 10.481591832064113 0 0 0
446 1 12.260848444406676 1.2633994743479822 10.593871671350726 0 0 0
14 1 12.40769942833274 1.2302950990462764 -0.032176269044989075 0 0 0
569 1 14.434620143029687 17.785959261925754 10.462188081338082 0 0 0
445 1 10.328731151557433 21.24997044419062 10.498105257825063 0 -1 0
561 1 7.129854635021929 17.64809479823915 10.538977142138185 0 0 0
554 1 1.5370107882238757 19.77565757841925 10.372223375074576 0 0 0
505 1 21.44566465735495 10.428208778686281 10.476707091981877 -1 0 0
497 1 14.20850551298973 7.04680031269929 10.60835315169187 0 0 0
442 1 8.951458128797054 1.429042769600252 10.466988628163808 0 0 0
37 1 10.871214882283638 3.4616258651496663 -0.09607126462195903 0 0 0
474 1 15.76999664717354 5.015783607960968 10.023566924195611 0 0 0
482 1 1.4876662928465778 8.827117479894762 10.497993992620374 0 0 0
466 1 8.848361400853035 5.369433757929553 10.504184171206902 0 0 0
494 1 12.638139140304892 8.95884930392121 10.388816946773987 0 0 0
558 1 5.315294889810113 19.738481371980328 10.503799186688052 0 0 0
550 1 19.931725220127483 16.022162744557427 10.503013741813238 0 0 0
573 1 18.20997634095525 17.98095518294047 10.521112670955851 0 0 0
130 1 8.7445831641721 19.667984368305277 -0.0098878891321732 0 0 0
465 1 6.914567465470317 3.264037562247233 10.495628258978508 0 0 0
62 1 12.58313115510412 8.229687367345623 -0.11380092540864695 0 0 0
493 1 10.655800787675338 7.197482235806065 10.626793175075546 0 0 0
502 1 19.547528783933082 8.88984978018879 10.549251588152694 0 0 0
441 1 7.104103661960511 0.04721009139508581 10.579428962384663 0 0 0
17 1 14.186606501752246 21.40486176149379 -0.24457171116483778 0 -1 0
534 1 5.395193334990111 16.339733833707157 10.503092210754897 0 0 0
562 1 8.831651931051612 19.55760685787292 10.624440230764051 0 0 0
525 1 18.048833362852406 10.687874054901494 10.477840674474317 0 0 0
530 1 1.7740920512356855 15.797799191988107 10.585963474492333 0 0 0
138 1 15.929788846592297 19.60112738265442 -0.14303643683491174 0 0 0
9 1 6.952695793599946 -0.1918441889368765 -0.23343673675234555 0 0 0
34 1 8.913456786944565 5.169827122731035 -0.12356575189151897 0 0 0
509 1 3.448129751553111 10.959133641840511 10.59995247644966 0 0 0
454 1 19.426665763096892 1.7544011615693398 10.4095331837496 0 0 0
438 1 5.084096049793411 1.7188016197814757 10.427040111884299 0 0 0
461 1 3.3987780489443193 3.6470394678783555 10.57475005781704 0 0 0
77 1 3.212849751229224 10.76560402440235 -0.24266323519166377 0 0 0
134 1 12.590092728349244 19.867198851172923 -0.11087835464620355 0 0 0
106 1 8.840203389253427 16.306124696809285 -0.2045457415222245 0 0 0
42 1 16.0085944141356 5.010007447671807 -0.08361014895931618 0 0 0
113 1 14.15776259677677 14.313715878647336 -0.045158419820516826 0 0 0
6 1 5.294835629022408 1.899234339869317 -0.15886924881706221 0 0 0
25 1 21.449280586359706 3.660223022352541 -0.18668091291225863 -1 0 0
21 1 17.764107949522852 21.40001658969254 -0.18449118389559516 0 -1 0
125 1 3.2066193713730833 17.89648986824985 -0.208635525380096 0 0 0
2 1 1.6834862572282365 1.690554736382391 -0.1901452281185243 0 0 0
570 1 15.89623873212964 19.772688957966686 10.51338611702581 0 0 0
440 1 3.6132201892181963 1.4701058305208616 12.747708528441455 0 0 0
459 1 1.836563906418243 3.3243376773448774 12.4946309807282 0 0 0
578 1 1.7864043796291504 1.9879812582180016 14.48480866759142 0 0 0
605 1 3.8881356879171456 3.552669272429349 14.325223787266202 0 0 0
603 1 1.3670842090533357 3.6391697460927186 16.287682364965413 0 0 0
601 1 -0.17477459070622428 3.4504812617546055 14.18095496742201 0 0 0
577 1 21.34119468626846 -0.015287913362203448 14.25098106982431 -1 0 0