LAMMPS data file via write_data, version 29 Oct 2020, timestep = 300000

864 atoms
1 atom types

-0.15690354651832017 21.42090354651593 xlo xhi
-0.15690354651832017 21.42090354651593 ylo yhi
-0.15690354651832017 21.42090354651593 zlo zhi

Masses

1 58.933

Atoms # atomic

8 1 3.2472204963988056 1.5229023855735004 1.7428835450059215 0 0 0
27 1 1.509072229181374 3.261077354581151 1.4489317221345672 0 0 0
146 1 1.5923718525614874 1.725993080277047 3.4966822949892777 0 0 0
173 1 3.179815532792393 3.5775893448445975 3.2250527209841082 0 0 0
169 1 21.41036841327589 3.4555005029549983 3.3219572383819784 -1 0 0
4 1 -0.12904955306014187 1.6112500641580805 1.3120514222908815 0 0 0
12 1 6.899631341529535 1.6133815523462087 1.5328196216360896 0 0 0
31 1 5.205815652286961 3.3448947499341393 1.4846380077092725 0 0 0
150 1 5.117991775154212 1.780774452579096 3.575160043730807 0 0 0
177 1 7.038761844283783 3.216552869765233 3.4514537374352083 0 0 0
129 1 6.97379515589612 17.940508437693744 -0.016797560761660196 0 0 0
16 1 10.659546655135607 1.3994786371609698 1.7096518245295054 0 0 0
35 1 9.028527645665601 3.2046899893607397 1.7881196730818343 0 0 0
154 1 8.982367357320932 1.5879654510699894 3.7167108917174585 0 0 0
158 1 12.548622835188903 1.7395658149029192 3.3323563761001904 0 0 0
181 1 10.67313146896825 3.3200238215698885 3.5447393644857796 0 0 0
39 1 12.236604836446132 3.3555276390929865 1.5463534746133831 0 0 0
179 1 8.840046521767661 3.378095833754512 5.237533874837114 0 0 0
409 1 -0.07694355779316361 17.779804132682365 6.883628337548336 0 0 0
311 1 19.38985339825222 -0.10435150221592693 8.899035330091552 0 0 0
432 1 17.772496098590643 19.570596871306094 8.8283814976261 0 0 0
20 1 14.253200302587139 1.6372410870946172 1.3716546793476057 0 0 0
43 1 16.173224405854086 3.400590759773445 1.6257893435106638 0 0 0
162 1 15.830625459696854 1.6989246475561348 3.246804982423827 0 0 0
185 1 14.219505542625793 3.3576729839831896 3.197632159125675 0 0 0
187 1 15.897811671178799 3.414566110687628 5.332425497787646 0 0 0
126 1 5.272885669785889 19.653654877821012 0.20662436831996833 0 0 0
161 1 14.281582152282423 -0.015732746674913756 3.474426371968536 0 0 0
431 1 19.790736399394838 17.753017254919108 8.882471976807345 0 0 0
24 1 17.96368779205048 1.7191203567722273 1.7961903991600459 0 0 0
47 1 19.712465219211943 3.3054896827269604 1.3540609065292735 0 0 0
166 1 19.60511351976487 2.1748836811215404 3.425885158623746 0 0 0
189 1 17.808273232534113 3.499111485380491 3.597902627499219 0 0 0
191 1 19.49294272397546 3.495305452718207 5.639680540667932 0 0 0
558 1 5.327210415933935 19.777057513243257 10.595042541671933 0 0 0
430 1 19.769033526406034 19.67828696329333 7.058639038165745 0 0 0
23 1 19.41547214875802 -0.08766231362915103 1.8162452388184573 0 0 0
148 1 21.294167716017487 1.861924385324584 5.1406477828703085 -1 0 0
167 1 19.473143318880908 0.13065935158730468 5.32685939290224 0 0 0
168 1 17.66454159218506 1.7375466367920058 5.175848311894259 0 0 0
32 1 3.4374693820796125 5.2291978776670005 1.5285844221478764 0 0 0
51 1 1.4312744021368187 7.100701644457694 1.6358247869427156 0 0 0
170 1 1.404941662471577 5.184845556376251 3.3122079242711995 0 0 0
197 1 3.435402553843517 6.960055616165116 3.296743806885695 0 0 0
172 1 -0.03267850200646194 5.274473789174652 5.3199448610254505 0 0 0
28 1 21.2872433318784 5.074573689364684 1.5052220547914463 -1 0 0
195 1 1.7346051012623511 7.011197261433685 5.069797227764877 0 0 0
125 1 3.5696679794794632 17.875549383653443 -0.042769088074848735 0 0 0
429 1 18.048037343233894 17.511750152697267 6.977240207551792 0 0 0
36 1 7.352809339312875 4.895401660436349 1.7037196867247733 0 0 0
55 1 5.303064298477852 6.82206562454632 1.6397588847130355 0 0 0
174 1 5.288283833956342 4.9343279989403435 3.2691277757716892 0 0 0
201 1 6.880087243667249 6.6963977446996585 3.2965983850923695 0 0 0
180 1 6.9603231164535675 4.938220438113781 5.132188033629726 0 0 0
199 1 5.126549886257227 6.925077466278375 5.065353864042794 0 0 0
268 1 -0.1469385408997681 19.78465829873287 4.959848295674273 0 0 0
288 1 18.20174858842656 19.569022077064247 4.967721544831288 0 0 0
40 1 10.508612416717954 5.249551512703499 1.7226911996964558 0 0 0
59 1 8.824073068998716 6.905461343362042 1.6496236903167123 0 0 0
63 1 12.464012873755578 6.960845064907318 1.8017092071357066 0 0 0
178 1 8.931947542435957 4.924641775407191 3.5527727148899935 0 0 0
182 1 12.638777929977708 5.1566940606494365 3.43784894853725 0 0 0
205 1 10.743616271093194 6.967631722779982 3.4535046109081398 0 0 0
203 1 8.805506787037478 6.7348743428246856 5.0285780339878094 0 0 0
207 1 12.507707127088084 6.812413721774547 5.0834765539727345 0 0 0
18 1 16.310657209730657 1.7100929291065363 -0.11691919312139237 0 0 0
412 1 21.300786125724876 19.84520812585489 8.837293332829159 -1 0 0
57 1 7.010110669138523 6.843113056766878 -0.10202374169985287 0 0 0
44 1 14.332076115421373 5.330798362414725 1.7308734998648723 0 0 0
67 1 16.01958840865624 7.207097437086985 1.722868432652104 0 0 0
186 1 16.05755801921861 5.252780029458307 3.376209105016623 0 0 0
209 1 14.370413280315962 7.031141338959053 3.512110050984589 0 0 0
211 1 16.22154032688473 7.170574864211948 5.352660264817355 0 0 0
428 1 14.363614027249348 19.547567134548792 8.82841378696482 0 0 0
21 1 17.75855098450019 -0.017212025263611874 -0.14045462158667504 0 0 0
193 1 21.344744043632616 7.077811655562102 3.456350642077355 -1 0 0
48 1 17.709725548983037 5.3451449359891505 1.5757879697011867 0 0 0
71 1 19.49728857996864 6.964065570141407 1.6530614203766951 0 0 0
190 1 19.515829455036602 5.270408078996615 3.371548353082371 0 0 0
213 1 17.86373021773791 7.152132689765806 3.552077319814282 0 0 0
192 1 17.668165679776635 5.357338220987432 5.466375319623811 0 0 0
427 1 16.108729128555225 17.702480894989186 8.822572124544598 0 0 0
215 1 19.537791968163845 7.149996140363597 5.468615709098141 0 0 0
426 1 16.191522456787673 19.44145304619574 7.014464383475485 0 0 0
425 1 14.124810044139732 17.77264083577493 7.229765048205382 0 0 0
56 1 3.3312252062566485 9.056926539933661 1.8226606140596935 0 0 0
75 1 1.6106330022367255 10.637490729049318 1.7478587126446044 0 0 0
80 1 3.4765662027468607 12.371622677934141 1.5941871233191571 0 0 0
194 1 1.5759730736379556 8.933571188037622 3.4620830973450083 0 0 0
218 1 1.8582755362216754 12.389920982335768 3.3494276028385763 0 0 0
221 1 3.6160339963930235 10.766165907667279 3.455247120885356 0 0 0
219 1 1.7923905922095422 10.443286296082782 5.377182096662292 0 0 0
52 1 -0.15418533503872567 8.631862550034212 1.6274705499550797 0 0 0
217 1 -0.0486865139477045 10.605073711334603 3.7130551122180764 0 0 0
76 1 0.035224398223832054 12.247257893305584 1.61441061844563 0 0 0
196 1 -0.09886883520161596 8.782816997747956 5.222546157577811 0 0 0
159 1 12.633277044284767 21.391632390022007 5.242973902878212 0 -1 0
424 1 10.649540722935951 19.604162637733182 8.811634528260122 0 0 0
60 1 7.310700885184571 8.722282224535654 1.5753678882628797 0 0 0
79 1 5.12110747487696 10.732777382740139 1.5511600110131205 0 0 0
198 1 5.222003736537487 8.726971042037903 3.292972618682458 0 0 0
222 1 5.215154082999715 12.442019801805396 3.5041461672030323 0 0 0
225 1 6.959739132327929 10.497237056533557 3.475165379769567 0 0 0
84 1 7.274563155098118 12.258653397305608 1.7267484204596713 0 0 0
37 1 10.565496725034258 3.4048815356528053 -0.0392716226406723 0 0 0
423 1 12.475785146119142 17.6812235469584 9.023757462504294 0 0 0
303 1 12.413357163140864 21.408795095893925 8.842220668624835 0 -1 0
64 1 10.740711120645564 8.870721560044888 1.5728499550050863 0 0 0
83 1 8.975743003305187 10.518317520172838 1.7108088045212424 0 0 0
87 1 12.564044322682525 10.656891058935326 1.615809983707347 0 0 0
88 1 10.790363373362977 12.354527490915194 1.7360391854759054 0 0 0
202 1 8.63929973022873 8.927583846724843 3.598760076794538 0 0 0
206 1 12.569396598576658 8.898299011571643 3.368242460931478 0 0 0
226 1 8.989989109052749 12.416655823952933 3.528866048169793 0 0 0
229 1 10.592059475932222 10.441419095605943 3.378829300640531 0 0 0
230 1 12.564943075014703 12.400264842097101 3.531345149242729 0 0 0
77 1 3.1489439733948847 10.75582595137692 -0.1056360908014878 0 0 0
299 1 8.829391131459413 -0.11480330570017117 8.85019137433205 0 0 0
231 1 12.711224873054071 10.699633751434172 5.261356294712067 0 0 0
422 1 12.577296455373496 19.59748442916998 7.0715336294992746 0 0 0
68 1 14.26632784269809 8.58603430835947 1.6885826617269977 0 0 0
91 1 15.928256441256151 10.755611898454083 1.595793842910819 0 0 0
210 1 16.09181977464428 8.865514443238373 3.6127783427576134 0 0 0
233 1 14.3725750430589 10.739603333944672 3.378859290173924 0 0 0
234 1 16.2655852334697 12.360220452332012 3.3043468218661967 0 0 0
92 1 14.07641120198357 12.424342579201609 1.6110976110380373 0 0 0
212 1 14.218026144219968 8.802488264495775 5.003506577047928 0 0 0
236 1 14.548727822505443 12.455692553660624 5.067522041537375 0 0 0
418 1 8.653892283952509 19.422761880257504 6.87968478511703 0 0 0
72 1 17.8808745573453 8.847445053664382 1.4969214833966082 0 0 0
95 1 19.77766159423839 10.532786411097657 1.7598836262657305 0 0 0
96 1 17.930815505137424 12.493299578779215 1.3233543687729805 0 0 0
214 1 19.791322475779573 8.917000017862042 3.485289570690884 0 0 0
237 1 17.89220235688083 10.763307997322693 3.3366474732910048 0 0 0
238 1 19.80030428288667 12.457936499931806 3.2229301107197417 0 0 0
240 1 17.962030592508235 12.598505649172784 5.170144853373572 0 0 0
419 1 9.006184305108071 17.720743335548995 8.64890708908621 0 0 0
99 1 1.7109528579083073 14.261413925049329 1.6772070441868048 0 0 0
104 1 3.339614633797112 15.996362558588372 1.4020657352856571 0 0 0
242 1 1.7377511535255183 16.219675047393373 3.5379608954090767 0 0 0
245 1 3.5208757059567404 14.20048136755221 3.570749634122716 0 0 0
421 1 10.844840203533046 17.86217573764742 6.920743206534669 0 0 0
243 1 1.6600215105409821 14.063209641118915 5.141026072711334 0 0 0
248 1 3.502478669470711 16.139651718335678 5.235213441729421 0 0 0
103 1 5.370466411525891 14.329730222578934 1.7541543003443987 0 0 0
108 1 7.064366571689451 16.070252214637087 1.7472488158699218 0 0 0
246 1 5.122638048706163 16.020930289132288 3.325988175601523 0 0 0
249 1 7.124687353458826 14.296922281300972 3.3458471452569705 0 0 0
280 1 10.85175202953509 19.47871002432813 5.1119595914559515 0 0 0
250 1 8.930071898352917 16.271278053824503 3.330334041483649 0 0 0
107 1 9.091853254642395 14.292831054565942 1.528465179901181 0 0 0
111 1 12.379519809745684 14.212589309769266 1.5893909619285467 0 0 0
112 1 10.720256835598612 16.153176852413814 1.729971844540601 0 0 0
253 1 10.532808499967604 14.296524825484601 3.517180926916145 0 0 0
254 1 12.365836697020622 15.935707179143188 3.3672274885350197 0 0 0
251 1 8.823281225748863 14.359993613476357 5.086450606622962 0 0 0
255 1 12.683801418291972 14.306806436955537 5.125287684059554 0 0 0
115 1 15.926011475068288 14.079458456055093 1.6373014145879812 0 0 0
116 1 14.147658853505773 16.096850770381486 1.5713919173948179 0 0 0
257 1 14.140383177475506 14.315941871961037 3.1780752271762176 0 0 0
258 1 16.038796299998367 15.832325045898216 3.3529107851500615 0 0 0
279 1 12.679800643077359 17.94549274835451 5.150260045925957 0 0 0
260 1 14.027980151582623 16.098058504900266 5.2487075929359825 0 0 0
259 1 16.26069959221101 14.253669687371332 5.294213141355454 0 0 0
241 1 21.416539480154356 14.304098682723332 3.3287291867171427 -1 0 0
100 1 -0.0020718356704295393 16.12689347585669 1.4749088665364225 0 0 0
119 1 19.759494083992678 14.3669168221231 1.5638994079667026 0 0 0
120 1 17.783726101258708 16.155932227684517 1.6552909383077565 0 0 0
261 1 17.851241542872643 14.13188296294921 3.2634027940870016 0 0 0
262 1 19.732639145547473 16.0827972357042 3.2055367974139948 0 0 0
264 1 18.082614437483137 15.844745929634508 4.910331712233879 0 0 0
50 1 1.6241935496451771 8.802522604539533 -0.1273611773154939 0 0 0
3 1 1.5931336279368182 21.35864562964848 1.4784513140454811 0 -1 0
149 1 3.510716906926403 -0.10000580423527217 3.5740954523576076 0 0 0
123 1 1.8595111091631011 17.915331962994266 1.5016095227696493 0 0 0
128 1 3.4774125130023803 19.687566165569493 1.7920203318519303 0 0 0
266 1 1.675064862777745 19.562969985336643 3.21862408594651 0 0 0
269 1 3.5442695555642665 17.903048679595834 3.560602846491516 0 0 0
265 1 21.381274316707135 17.799557135334403 3.4708003434071197 -1 0 0
267 1 1.693875404348339 18.025195643282238 5.222989946848379 0 0 0
414 1 5.208746100964293 19.712959673532737 7.031848382614936 0 0 0
7 1 5.098787602160469 -0.046489225790338456 1.8102002482450954 0 0 0
153 1 7.097390166104818 0.018799130144141557 3.4516217354673233 0 0 0
127 1 5.255719798266237 17.873374479254487 1.9184197666641234 0 0 0
132 1 7.049202064881117 19.768330013098378 1.8062128039423442 0 0 0
270 1 5.278957379517442 19.740914093285213 3.62843146262039 0 0 0
273 1 7.250266505153061 18.195620903777296 3.5800657419536077 0 0 0
276 1 7.042362719936766 19.78189479206413 5.310242922171427 0 0 0
155 1 8.96880644484061 21.3302080206894 5.355545195589439 0 -1 0
11 1 8.87668048600657 -0.03403627238663781 1.511485623276539 0 0 0
15 1 12.789149156668735 -0.1390364692093258 1.7784855826834765 0 0 0
157 1 11.008202712136105 -0.10946253294294456 3.6234753173512764 0 0 0
131 1 8.819369879463462 18.038929475039197 1.5931209109482491 0 0 0
135 1 12.50940875223357 17.892565404294068 1.5555936752789736 0 0 0
136 1 10.60729226753902 19.9178651298895 1.6171216978362215 0 0 0
274 1 8.967912309526001 19.825426609121536 3.52903078527198 0 0 0
277 1 10.787996580056506 18.025316582840787 3.278081095164632 0 0 0
278 1 12.437467603462402 19.636641932223682 3.187675881775688 0 0 0
275 1 9.195677925397813 17.984249762270437 5.216871821321152 0 0 0
415 1 5.015503402155153 18.036999006176373 8.885283273510318 0 0 0
420 1 6.895074590913773 19.709484829089874 8.737322079262293 0 0 0
283 1 16.026472175393614 17.72985017691947 5.171831089480443 0 0 0
284 1 14.456724735825352 19.691650649499337 5.22580156813323 0 0 0
163 1 16.22119089663667 21.25673230062964 5.2291267109274235 0 -1 0
19 1 16.018390316666228 -0.09691823828148216 1.4959297366712554 0 0 0
139 1 16.04172200174156 17.77259365140501 1.722872865741537 0 0 0
140 1 14.407406620856914 19.641579215958963 1.6959178465333093 0 0 0
281 1 14.30602010529842 17.73116755996743 3.4592771008052936 0 0 0
282 1 16.16943263207267 19.753649325779953 3.464824779136632 0 0 0
417 1 6.826004080652001 17.730440342498134 7.2696063901337995 0 0 0
124 1 -0.1361879450919399 19.712803951075628 1.7093751061333247 0 0 0
145 1 21.2478568727313 0.06477122492160353 3.3199277854702545 -1 0 0
165 1 17.73716497251273 -0.05864190475689855 3.4386705577083174 0 0 0
287 1 19.629306840849154 17.862918801234066 5.091317099267134 0 0 0
143 1 19.68068504558522 17.964833419030654 1.48324046915493 0 0 0
144 1 17.781172439367033 19.677709732715456 1.382257763456978 0 0 0
285 1 17.73884638647675 17.690331365592044 3.444325631368307 0 0 0
286 1 19.726672661097872 19.686609280439107 3.2219223662270955 0 0 0
66 1 15.973396700778403 8.99187192645143 -0.11776258019212434 0 0 0
151 1 5.305019445288202 -0.15164289387005017 5.444950295492052 0 0 0
171 1 1.6104087283256148 3.484246287733397 5.3240101454956354 0 0 0
147 1 1.522315424018119 -0.12801768382413325 5.208968119836379 0 0 0
152 1 3.383509734167067 1.6415487384835883 5.209540749533619 0 0 0
290 1 1.6636294183230194 1.7740620866489285 6.823750355282088 0 0 0
296 1 3.3674825354881106 1.7439642762823544 8.655068338183082 0 0 0
315 1 1.7412642438802908 3.321559406130078 8.67964896324964 0 0 0
317 1 3.358219281418045 3.6949244387682407 7.008399292268247 0 0 0
293 1 3.4276825431204845 -0.11251423469429511 6.9184972420298365 0 0 0
271 1 5.161189983848524 17.78024582170761 5.2609038808093285 0 0 0
297 1 7.139179957554197 -0.04557500345106473 6.992994410322962 0 0 0
292 1 21.367591560845774 1.5985448119300245 8.758957462179914 -1 0 0
291 1 1.5671857943076282 21.394312554885083 8.881141468634794 0 -1 0
156 1 7.143278063276541 1.7285405161725675 5.250086831089203 0 0 0
175 1 5.0651422177350085 3.56364444533136 5.12571232893343 0 0 0
295 1 5.2462353513388535 0.20132529742431082 8.773313258688706 0 0 0
294 1 5.1902394618055805 1.7959589642794331 7.0171386760236505 0 0 0
300 1 7.134259357193198 1.7999863837772034 8.757603140437666 0 0 0
319 1 5.053000884129596 3.539388062019082 8.935877132957033 0 0 0
321 1 6.837525504419728 3.3791893141242872 7.001499133948194 0 0 0
183 1 12.492642508021564 3.5021461673895113 5.138260632614136 0 0 0
160 1 10.929815681253668 1.6027677892447985 5.3375484283923695 0 0 0
298 1 9.017780197202752 1.7297088413731856 6.759711926813081 0 0 0
302 1 12.582198174998144 1.5553037938736005 7.2112153807215975 0 0 0
304 1 10.590061966153407 1.485815247741097 8.707378681769201 0 0 0
323 1 9.03602666044652 3.481165059434493 8.569419998748547 0 0 0
325 1 10.793174860941699 3.5156315361692156 6.85911644401073 0 0 0
327 1 12.65284723300736 3.2963732021760674 8.727882593729545 0 0 0
301 1 10.544389964792352 21.202957556764133 6.949189960602863 0 -1 0
164 1 14.207397415988277 1.629975983701763 5.194220981791567 0 0 0
305 1 14.454877392654138 -0.05206699502561281 6.976339351699269 0 0 0
307 1 16.13483131543839 21.337095642498767 8.848592943874614 0 -1 0
306 1 15.952359948643812 1.6149350101833766 6.995269893667492 0 0 0
308 1 14.505129588382946 1.4674256756342619 8.754209500667839 0 0 0
329 1 14.365453249047777 3.5824658574997437 6.99613888365559 0 0 0
331 1 15.837137389341844 3.5889287605637015 8.97209226663795 0 0 0
106 1 8.908369089974942 16.179683723055113 -0.03301479815669074 0 0 0
81 1 7.047249308295871 10.602115384379042 -0.05252977415372974 0 0 0
309 1 17.795677248942546 -0.15440245939005592 7.036616393189587 0 0 0
313 1 21.32288420511943 3.4394733718572903 7.029197253558114 -1 0 0
289 1 21.39528636217515 -0.10241715927099904 7.0954655640080455 -1 0 0
310 1 19.534219959447228 1.6787114365291378 7.011495776132877 0 0 0
312 1 17.629348804839758 1.8693406747538526 8.696294144179936 0 0 0
333 1 17.64137801265491 3.483404371996395 6.957977591109657 0 0 0
335 1 19.408934582587065 3.358919651330279 9.012217136101905 0 0 0
133 1 10.734012768209555 18.032444065986112 -0.070278245079641 0 0 0
38 1 12.41520851847543 5.323694958182665 0.11043944347013734 0 0 0
410 1 1.583068732069835 19.769322186959094 6.872179689982812 0 0 0
529 1 -0.10504249304872815 14.182681192557105 10.59018694686989 0 0 0
176 1 3.422990407631808 5.407607210726536 5.300049115365106 0 0 0
314 1 1.6052314258833316 5.298637671600144 7.042100746698498 0 0 0
320 1 3.2225487739724183 5.121598912221158 9.010928039846132 0 0 0
339 1 1.6430938567235835 6.982316124746765 8.978268659524408 0 0 0
341 1 3.418756931586217 7.01837096775732 7.2025717641406475 0 0 0
316 1 0.07567543028606138 5.066630793698529 8.85230219958442 0 0 0
337 1 -0.1216376189479733 7.075686031779962 7.0554936044239875 0 0 0
411 1 1.7465828973787536 18.094464087016846 8.9261538928079 0 0 0
318 1 5.064182752196931 5.301907790960275 7.031356677471521 0 0 0
324 1 6.972703663318562 5.335421487698594 8.613635539759317 0 0 0
343 1 5.219204257676918 6.844738978737499 8.845706200239652 0 0 0
345 1 6.902268514266474 7.047798123363955 6.88545694578501 0 0 0
413 1 3.212574087594553 17.79992085743411 7.009023525853445 0 0 0
184 1 10.837231271110545 5.239325720524926 5.224808625005922 0 0 0
322 1 8.824415289678042 5.153465557887104 6.929469934552727 0 0 0
326 1 12.487540570318599 5.048271662080502 7.015842846263292 0 0 0
328 1 10.809755069454038 5.256735215557325 8.752122012935711 0 0 0
347 1 8.767707640529053 6.701925309309504 8.569458833460468 0 0 0
349 1 10.391431709766268 6.875708445197638 6.780466841113009 0 0 0
351 1 12.419838921674389 6.833376794667538 8.816999587928397 0 0 0
416 1 3.3915637322057894 19.667467110541608 8.809586432742481 0 0 0
272 1 3.385276141102227 19.636742831894843 5.3062586409894825 0 0 0
506 1 1.5814616385145748 12.420040158764174 10.598126464920075 0 0 0
188 1 14.297460857538063 5.124910274047665 5.087084760042005 0 0 0
330 1 16.086671230061306 5.629211154092308 7.290685674950342 0 0 0
332 1 14.394302375931394 5.343313236444819 8.972245242944004 0 0 0
353 1 14.115678046707036 7.125607222891126 6.77022989041619 0 0 0
355 1 15.740421280380719 7.4235365057007145 8.817585925617523 0 0 0
334 1 19.581948776813412 5.363924256049833 7.168563408417958 0 0 0
336 1 17.816839560564162 5.198222309623508 8.968598838948722 0 0 0
357 1 17.758020630693437 7.060845271602706 7.307753350799513 0 0 0
359 1 19.764654162126973 7.111943282599849 8.891022954325242 0 0 0
545 1 14.304376016581182 13.910206065011767 10.583893211719873 0 0 0
514 1 8.814746490299052 12.215973077747453 10.628929090954495 0 0 0
200 1 3.439275830928271 8.827467345420503 5.277452462625814 0 0 0
224 1 3.6075421228603006 12.416013004502418 5.2862560744428535 0 0 0
338 1 1.9188668460147964 8.700919330388473 7.082283472058399 0 0 0
344 1 3.3950205822601283 8.787679979741386 9.049961887600913 0 0 0
362 1 1.7213002183511277 12.182359790734818 7.042760091546614 0 0 0
363 1 1.6969650371746745 10.49825893460277 8.763838312569915 0 0 0
365 1 3.671851777790704 10.589226954939813 7.190866537344671 0 0 0
368 1 3.2431934039861074 12.356550352813594 8.870506218488874 0 0 0
385 1 0.1479249313207917 14.106607189983114 7.085954972754968 0 0 0
220 1 0.12897722441278825 12.322614193720156 5.475526215302825 0 0 0
364 1 21.396926984483063 12.26036500161287 8.782860560322673 -1 0 0
361 1 -0.05531237108485826 10.431022117785083 6.997299146958757 0 0 0
113 1 14.270526190221508 14.28617727167915 -0.11088147102754045 0 0 0
517 1 10.5772839074036 10.34247445982261 10.437363925372392 0 0 0
204 1 6.944930809918827 8.802288500776898 5.300226293131904 0 0 0
223 1 5.26231325259726 10.486671605040963 5.356792070667686 0 0 0
228 1 7.043103381878599 12.398668836954284 5.253989733859418 0 0 0
342 1 5.200081662399759 8.552223989287011 7.202950626959227 0 0 0
348 1 6.985048334175292 8.732399864595527 8.880214190322814 0 0 0
366 1 5.437934540980258 12.489767068902998 7.176592248930307 0 0 0
367 1 5.181576398668893 10.496857768226311 9.070840569490533 0 0 0
369 1 7.095845071587411 10.49991861514529 7.162389016641793 0 0 0
372 1 6.99393152499115 12.518370583189657 8.831569764130135 0 0 0
437 1 3.481725204249901 0.041582887511956435 10.631473544931058 0 0 0
227 1 8.726458980346353 10.549309409001912 5.286118964583858 0 0 0
232 1 10.647029599002051 12.295806758940392 5.410115194471007 0 0 0
208 1 10.892100010114 8.618322887582707 5.050435939708389 0 0 0
494 1 12.324983007462325 8.805274695379216 10.547487417019834 0 0 0
370 1 8.88065757105226 12.46158816655917 6.935003306594093 0 0 0
350 1 12.4933782233 8.64660365554508 7.053784405179524 0 0 0
346 1 8.843401284318414 8.610649747222707 7.094143721121575 0 0 0
352 1 10.493401933810919 8.36743430666077 8.72093778346315 0 0 0
371 1 8.82544252817908 10.497303086171396 8.847520623340534 0 0 0
373 1 10.483432363294957 10.398006176976311 7.172631484253629 0 0 0
376 1 10.511638162060263 12.39194242334343 8.688464461858608 0 0 0
374 1 12.484425098541589 12.451280627942863 6.995904726406623 0 0 0
405 1 18.04108357801165 14.373188606960404 6.9053976791808465 0 0 0
408 1 17.88678634316264 16.094266670567443 8.627046906904784 0 0 0
537 1 6.888372851993574 14.217531973505466 10.555301952670016 0 0 0
354 1 16.107231528126512 8.873409685190694 7.132308152124667 0 0 0
375 1 12.362672768066297 10.658647180755366 8.728864393608957 0 0 0
235 1 16.146219769499716 10.619360975149267 5.424008820262303 0 0 0
356 1 14.077804092184405 8.981786540503656 9.045227375178712 0 0 0
377 1 14.284082917518068 10.664171304115207 6.92429522200622 0 0 0
378 1 16.092502587963594 12.422238354191613 6.839200745802738 0 0 0
379 1 16.358835182531664 10.493868201616987 8.885578912292416 0 0 0
380 1 14.393843862820075 12.114553762288555 8.875984328518841 0 0 0
407 1 19.774928671135093 14.315184018254408 8.657974411991525 0 0 0
466 1 8.998285047967792 5.106723666204448 10.51325021331451 0 0 0
263 1 20.004453693073238 14.099217885926487 5.180921952526521 0 0 0
239 1 19.76610290846469 10.814497656439416 5.11946969740741 0 0 0
216 1 17.86501025145762 9.065751537316299 5.15394660265022 0 0 0
340 1 -0.0030487294293664036 8.846592063089618 8.92573229409815 0 0 0
358 1 19.62636367253318 8.811247523941876 7.059107472970237 0 0 0
360 1 17.98253615432246 8.825671757757586 8.97649722779506 0 0 0
381 1 17.95863849451768 10.707147868776532 7.149528863140458 0 0 0
382 1 19.86733169721829 12.35353557988931 7.040824896765391 0 0 0
383 1 19.769741366626413 10.557947236840322 8.908501662881836 0 0 0
384 1 17.680922106151556 12.621772920175019 8.807699931191223 0 0 0
442 1 8.810695265678074 1.932361036126006 10.600176938195093 0 0 0
386 1 1.5143704180386812 16.07939511728025 6.868477664700294 0 0 0
387 1 1.8027966122898869 14.268292106912597 8.634714305112498 0 0 0
389 1 3.539055908611641 14.225804287990194 6.8585183775267335 0 0 0
392 1 3.244980596141429 16.194664176614765 8.824559495613334 0 0 0
388 1 -0.0789837173238209 16.02312652028249 8.726510978500981 0 0 0
406 1 19.869725915159535 15.903890624209248 6.951453878053655 0 0 0
247 1 5.302864163263131 14.385884946993926 5.3293736755067185 0 0 0
252 1 7.1133509209947965 16.25933237455277 5.211561498462069 0 0 0
390 1 5.249540748809028 15.867394793582084 7.175718759055766 0 0 0
391 1 5.163868011527172 14.252961624058981 8.885687244477829 0 0 0
393 1 7.169426833130611 14.259807990858585 6.980298504498469 0 0 0
396 1 7.035654253930482 16.056450624309562 8.78219628643846 0 0 0
244 1 -0.07593899508549176 16.045520434333888 5.220707628276163 0 0 0
256 1 10.883340577327404 16.06201713072445 5.2484515808447165 0 0 0
394 1 8.912971112766515 16.216197889281403 6.724049566253084 0 0 0
395 1 8.642514916418673 14.27340309174634 8.837894431072266 0 0 0
397 1 10.716744969287623 14.1101748750813 6.98128303149892 0 0 0
398 1 12.507883121721521 15.948806684541077 7.027930907705674 0 0 0
400 1 10.709667417102684 16.10501155841964 8.524438783575233 0 0 0
399 1 12.428984518922087 14.259798534451324 8.786218805992858 0 0 0
402 1 15.936927911559971 16.093133127128134 7.036036503239736 0 0 0
401 1 14.38354627142722 13.954251536393555 7.007718319785911 0 0 0
404 1 14.119162470586355 16.06084279514326 9.00138154706581 0 0 0
403 1 15.905412576177573 14.370852136185134 8.842557498527556 0 0 0
561 1 6.953590218573597 17.81189635018402 10.624411621153547 0 0 0
538 1 8.804860201671293 16.116463284276314 10.466415360482973 0 0 0
573 1 17.603783375849936 17.798011017192394 10.604332354422901 0 0 0
34 1 8.913984204773975 5.289328442066846 -0.0695920060746859 0 0 0
562 1 8.845477098118907 19.65408550834735 10.54741680590427 0 0 0
454 1 19.58304894166252 1.5466410819727938 10.468584175620014 0 0 0
457 1 -0.13004306906028518 3.3443734238217226 10.55170158539062 0 0 0
130 1 8.721626953282449 19.53763413267614 -0.10756382578305335 0 0 0
521 1 14.165762109754652 10.618153028480593 10.621079750163375 0 0 0
490 1 8.67621334521411 8.750628831331099 10.51467248276219 0 0 0
510 1 5.032569177514537 12.294420349288465 10.484066600235776 0 0 0
526 1 19.63828164247925 12.453867765293213 10.474490524265736 0 0 0
53 1 3.4348543438688273 7.111965504667 0.14264818527173873 0 0 0
477 1 17.754862126554926 3.3750677749323654 10.627644839087372 0 0 0
513 1 7.078344849594226 10.58458525279286 10.510753595327659 0 0 0
550 1 19.698087771508455 16.18121089355413 10.547615930692414 0 0 0
518 1 12.391654315220467 12.29817526021688 10.357492728307443 0 0 0
533 1 3.0627878784268927 14.208724134394146 10.561202504101043 0 0 0
142 1 19.720316753835135 19.751896137800195 -0.13161926623700992 0 0 0
549 1 17.80095288423285 14.2253547119616 10.53217045785354 0 0 0
29 1 3.3386976658475307 3.471378630267659 -0.007478298718453402 0 0 0
54 1 5.3454997460760145 8.953411332494381 0.09229006930725348 0 0 0
434 1 1.6442510587334789 1.54767064610836 10.576142606602957 0 0 0
534 1 5.169455827024574 16.094833057124646 10.55364241853033 0 0 0
90 1 15.933020157359556 12.478338553463738 -0.10513518493004881 0 0 0
78 1 5.328978105201341 12.522953031456833 -0.13702381964744603 0 0 0
474 1 16.054974259138838 5.1914002726247155 10.616278204951806 0 0 0
13 1 10.846089894579272 0.06846189809555547 -0.02388431196254004 0 0 0
105 1 7.163974540104493 14.24072165084588 0.0777233926196601 0 0 0
61 1 10.642581878438307 7.042587718615299 -0.15622195906292546 0 0 0
469 1 10.73377224177602 3.4971846213535107 10.394024836147205 0 0 0
445 1 10.624951887194017 21.373117703386676 10.532699839206543 0 -1 0
45 1 17.878417924038395 3.4505383149861943 -0.14826184458127045 0 0 0
478 1 19.64061467360944 5.200875823243265 10.516736079028421 0 0 0
33 1 7.171654141419762 3.3939582308788654 0.023385679982858676 0 0 0
566 1 12.501705963716484 19.68825805148782 10.519811395632754 0 0 0
85 1 10.816745318465466 10.691367881072996 -0.006907345818042643 0 0 0
134 1 12.51885161771884 19.758473472590488 -0.09703503422969817 0 0 0
440 1 3.3340171967221877 1.6385185945308824 12.598194116947734 0 0 0
459 1 1.535089723170568 3.3635875808565916 12.40364815131637 0 0 0
578 1 1.5957256501195825 1.5728770337584117 14.309708773149572 0 0 0
605 1 3.3813713217784964 3.5456534010862026 14.243826233465045 0 0 0
603 1 1.522637359338974 3.5609789684703985 15.84224130498957 0 0 0
435 1 1.5795518991663515 -0.10014470453627666 12.559512584753442 0 0 0
581 1 3.175211970515838 21.373850212594345 14.279219877000578 0 -1 0
601 1 21.344094989469447 3.530377602533373 14.243817599373106 -1 0 0
579 1 1.6729176265970704 -0.12384376217281118 16.008786883456047 0 0 0
844 1 21.316984178361455 19.593763210978885 19.69121490556266 -1 0 0
444 1 7.1912571921766935 1.7250310171000887 12.518208216547901 0 0 0
463 1 5.006400233005875 3.5438165630451937 12.484256455285045 0 0 0
582 1 5.160032116885601 1.7442516919139313 14.046829484250452 0 0 0
609 1 7.080549439346887 3.4216531005615005 14.238938120102505 0 0 0
588 1 6.984182022331232 1.720761183365413 15.878275449578053 0 0 0