LAMMPS data file via write_data, version 29 Oct 2020, timestep = 300000

864 atoms
1 atom types

-0.5782026726104554 21.842202672612036 xlo xhi
-0.5782026726104554 21.842202672612036 ylo yhi
-0.5782026726104554 21.842202672612036 zlo zhi

Masses

1 58.933

Atoms # atomic

164 1 2.0371083055155004 3.0167052390594504 2.862193534747051 -1 1 -1
465 1 -0.5523124477765184 21.83228975332164 1.5671408955490835 2 -2 1
49 1 2.5544410420899526 1.131162142344276 1.3654543599440976 1 -3 -1
86 1 20.684770202030112 3.5221556870959967 2.248479665500265 1 -2 1
45 1 3.8072374286564923 -0.24835424825631697 2.9219419421647594 0 -2 0
273 1 0.18153087988746874 1.574821305866494 3.0611233865058947 -1 1 -2
732 1 2.770459251534823 20.849188078879035 5.106090601592386 0 -1 -1
757 1 0.6312074560062795 4.421350741277036 5.0315724191309625 0 -1 -1
751 1 3.5002389865722767 3.076786091397354 0.6438221693246942 0 0 2
90 1 7.765419130996008 3.1734804192807617 5.44082167241416 0 1 0
376 1 10.012166270669669 12.016434377660802 1.6297700483886324 -1 0 -1
419 1 7.588378312266519 2.297780921987897 2.6940973237973163 -1 0 3
92 1 5.166483138463552 2.422463984626172 2.7788294372098536 -1 -1 0
804 1 7.756923469008015 0.18303499387488098 0.29071855912515066 0 1 0
455 1 7.621098323100922 -0.35464624934827643 2.5523484240188328 2 -1 2
93 1 6.321699240149996 0.9946820018249465 4.15166267358675 0 0 -1
590 1 14.077389256250127 6.800085113294294 -0.4659263564864617 -1 0 -1
433 1 2.932386708763582 0.8712569745100143 4.7778620693991884 -2 -1 2
503 1 9.904293662699713 2.7626473493538013 3.0857002353461795 0 0 0
221 1 11.680478395435696 1.7854745384829154 1.2380539864785125 0 1 -2
458 1 9.946932782920342 0.2558035053314598 2.1641210578656325 0 1 -1
70 1 9.964473974747682 5.525274702087795 1.9105533808709185 1 0 1
31 1 8.76636067519785 0.8394313723620521 3.9698389872579547 -1 -1 1
249 1 11.903162553668565 -0.33981115511437565 4.854252409368531 -1 1 2
607 1 20.43810088039617 13.658041725035337 -0.40051474193799425 1 1 -1
716 1 12.16653708520119 2.0214633499468446 4.370553064489583 0 1 1
137 1 18.746139982311487 -0.34795763327463347 6.372434503279202 -2 0 -1
125 1 18.341422649105272 19.337233425602108 5.816476179102333 -1 0 -1
152 1 14.838472392971575 1.8549241489838968 5.526208587658815 0 -1 -1
94 1 14.315695309041722 1.3628131530644383 -0.14466281190094865 0 0 0
579 1 16.37115245014477 2.721433122355333 1.3238440573603745 -3 -1 -1
355 1 16.022299251565677 3.7437519030854283 4.759652004971743 0 0 -1
657 1 13.184550220531797 3.7837471534491165 1.2189111957579604 -2 1 -1
493 1 17.910019095692746 0.40219665315727327 2.0360537350871675 1 1 0
318 1 12.001213280324857 0.21722801855739415 -0.47123753132771534 -1 -1 0
668 1 14.356898863865162 3.2794453171606777 3.027174678962142 0 1 0
37 1 13.215728578210504 0.38993182667041915 1.9999551152840649 1 -1 0
710 1 9.408994480907712 0.47880435690748735 8.472290298596917 1 2 -1
352 1 21.618565213743064 -0.5355802700618255 3.6916797103530845 -1 2 0
427 1 20.35287584673545 1.1346615369612991 2.4114751299490207 -1 3 1
862 1 18.66111659583308 2.7272306249980245 3.038765677558933 1 1 2
79 1 17.37447497837387 21.633537817503274 4.3553807182405055 1 -2 1
175 1 20.723266068377644 3.6472362223349837 4.493024572242291 -1 1 1
738 1 19.539538460743646 21.029496811053423 2.348622738187727 2 -2 0
808 1 17.53411657757905 1.764812425176956 5.079810751408864 -1 1 1
719 1 21.01129007644887 19.779350403467582 0.3242790627987314 2 -2 -2
502 1 19.11989443477673 2.012602238415247 0.7505811479861924 0 0 0
843 1 11.158324362281984 12.006625120764303 10.18596482394366 1 -1 1
441 1 1.385606624328159 4.342260908260253 0.7113516505422091 -1 -1 2
309 1 1.9864076413769394 5.4319675810961074 2.8603629570856266 1 1 -1
358 1 -0.05591976459011161 6.4280441492467695 2.451909391593158 1 2 1
409 1 18.766254600323695 3.3163921362663142 10.154113746079643 -3 1 -3
779 1 2.019444716290287 6.585567017441707 0.9712815516651321 1 0 1
391 1 6.146322311940436 4.131699556647122 4.215568158819614 -1 1 2
128 1 6.689992975355955 7.226302800541961 4.537486038817423 2 0 1
664 1 6.498074067225745 6.16961916079121 2.4100029244825527 0 1 2
711 1 6.779736406657238 8.730113734078506 2.314400322356767 1 0 1
445 1 3.8142099504087623 5.283851459437189 -0.21476204220933687 0 0 3
428 1 4.0315366448846826 4.431793864119158 2.3644452083014915 1 -1 0
248 1 4.608988516453006 6.9879818353241365 1.1059836620931003 -1 0 1
581 1 3.918924640945648 6.394418442230127 3.4785411284869925 -1 -1 0
569 1 6.9317363503435345 7.165370157991297 0.32316014621527334 0 0 0
260 1 19.947967353051318 7.02423494071186 9.985012174601495 0 0 1
132 1 5.7353958310452375 4.548335309896866 0.6536439677661274 1 0 1
681 1 11.546601551897941 6.809042765615719 3.970037904795669 -2 0 1
400 1 10.126862785527338 4.516633610358253 5.1580391377792925 1 0 0
440 1 8.124170072630571 9.159480513252829 4.1731516626975065 0 3 1
655 1 9.181814899871192 6.980507838555858 4.693233356488608 0 1 3
284 1 8.824766526550299 7.583210031658346 1.9140925880141033 -1 1 0
504 1 11.514700856868604 8.084215338231747 2.1716374012490327 2 0 2
483 1 7.992567322739477 4.946744787558534 2.9572128766646575 -2 -1 0
583 1 10.600460645301949 8.112817553262634 6.16642647277477 -1 0 0
841 1 13.35137375745105 6.030096970130056 2.0228504171522332 -1 0 2
863 1 11.736421577878538 20.30656366687553 0.4438662345845106 3 -1 1
432 1 15.310691540870708 7.735076492580367 1.8036531545804881 2 0 2
353 1 15.227878432803191 4.889386934713058 1.2602346390326753 -1 -1 -1
554 1 11.738292991508205 4.676061358863389 3.417521224838501 -1 -2 1
334 1 18.210082346774303 6.965667618376644 4.6326820032613325 0 1 1
621 1 17.486514127116664 8.542928030487953 2.4307925913676547 0 2 1
742 1 17.46803862049125 4.771390434273357 3.174526375110195 -1 -1 0
726 1 16.1082216466433 6.8012504592165355 3.5988256228892013 -1 -1 0
180 1 16.904701007746898 6.2717938502967945 1.0067599941567082 -2 -2 0
743 1 16.43923942673234 9.409449597037016 4.54384508436725 1 -3 2
395 1 14.01260434342937 8.539045103996253 3.5191427600488128 0 -3 0
734 1 18.139042485262866 4.045753100161168 0.7826346958767754 -1 -3 0
287 1 21.049506215757244 6.306928304669248 5.949230713744347 3 1 -2
453 1 20.050126040930582 5.7248468181290475 3.9186487738805846 -2 -1 0
293 1 20.086588067972713 8.573214529102549 6.260967986394325 -1 0 1
190 1 21.208676050743975 5.8745798889877126 0.8598539412397808 2 1 0
550 1 19.12897464946103 5.975500098194122 2.0317235984815802 1 -2 -1
172 1 20.881834029139515 8.15368544645709 3.52575959151413 0 0 1
237 1 -0.39137557396119604 2.641528625934376 0.4263978224857361 0 -2 -1
188 1 18.473675307736418 4.649560516619152 5.335140286523704 0 2 1
35 1 5.258302386268395 9.28887213141371 0.7039679296424624 -1 0 -1
582 1 2.5139844740474677 8.28815850613204 2.300811492264241 3 0 1
737 1 0.7816779124857753 8.942008627354163 3.7231759141760588 0 -2 1
193 1 0.7979074801665671 11.169891087363773 3.5926588855373023 1 2 0
680 1 2.5317534072472365 12.693568657065136 2.386283220122592 1 0 1
802 1 1.2042277267268449 10.150661320801476 1.3375075577640605 1 1 2
736 1 4.320223807962141 12.370846525274912 1.1368954596594143 0 0 0
325 1 5.09057886295131 12.810526836487057 4.955868097437972 0 1 0
759 1 8.17145650030637 20.65439412792566 10.345362881352308 1 0 2
285 1 4.630328575504708 8.849567796228264 3.653178001692214 -2 -1 -1
477 1 3.3416129793790152 8.55181641380775 -0.14342001893539968 0 2 1
528 1 6.4385855084470975 11.999196974725493 -0.4928229697024291 0 -1 1
104 1 7.624062238035879 10.769045352064435 2.066391099966415 -1 -2 2
491 1 7.643190535549731 9.831651634704519 0.15639122789508586 1 1 1
622 1 5.72201299889737 11.537465887388926 2.8285236774955886 -1 0 0
598 1 6.803782886745824 9.687988563235084 6.313398712062537 1 2 1
792 1 7.134250055180562 11.49907749585101 4.6497246807353285 2 -1 1
643 1 12.599455902844994 12.570865676150891 2.210140564052637 2 -2 -1
438 1 10.236527678337312 11.7854521178365 3.710946399159875 0 0 1
617 1 9.66209083579214 9.879386425373527 1.5697952048985493 2 1 1
223 1 10.252013796414584 9.583970279930266 3.729827322960781 0 0 0
781 1 13.630825405067293 10.535167255149819 2.7104262410063478 1 -1 0
677 1 6.768162028086546 13.271836784027974 1.4387505095776953 2 0 3
135 1 11.804111136012997 14.479104853277365 1.3261114503352236 1 -1 -3
57 1 11.907478681356869 10.604683273746177 0.8682429219881003 -1 1 1
476 1 10.420548346438865 3.731210029023634 0.25103572294533105 -1 1 0
690 1 14.818663902439388 13.03771481974868 2.595132935814752 1 0 0
359 1 14.536720338512907 10.77186849010066 4.473940217642644 -2 2 0
116 1 4.871482062582399 20.776780660257867 10.279629442445307 0 -2 -3
393 1 16.793336876901034 14.157663865245196 3.6367064962011595 -2 -1 0
65 1 15.996168746870328 10.447272554741252 2.610822275967482 2 -2 -2
648 1 14.058907113048257 12.08930240588767 0.414603613572304 1 0 1
573 1 18.990333653259164 11.633837152862185 9.077289966018295 0 -2 1
731 1 14.51593968186477 9.176050741843364 0.016236582770481678 0 -1 3
826 1 19.009681685406516 9.48882290308772 3.7401635658095786 -1 1 2
404 1 16.84803271818929 12.437136782116546 1.3604477104998105 -2 0 -1
392 1 21.380571103342817 10.089139556589975 2.222858798861813 -1 0 0
88 1 8.970267481771478 12.298657155983841 -0.44253100470524076 0 1 -2
124 1 -0.014035894528202975 11.97375400124353 1.321283565618474 0 1 0
786 1 17.67569972717807 10.14426807578792 0.9147258064805848 2 1 0
837 1 16.885929383179533 7.9499632644414895 -0.5117233401896891 1 -2 3
73 1 19.978865936906306 11.944713516887132 1.716199475919442 0 -2 1
806 1 13.72083942085208 18.99411611424819 0.05868252363504034 1 1 1
780 1 15.081815411773876 20.296772621010042 9.345792069000595 1 -1 0
212 1 4.401410393766845 14.235845332294158 2.729837662921263 1 -1 1
141 1 1.6226048706174763 4.651674832027542 10.629732513436867 0 0 0
177 1 3.525684157653166 10.384552400476416 1.5815343962206923 -2 0 0
443 1 4.491174149707994 16.4921794043799 2.540553209914069 0 -4 0
262 1 2.904132858928516 14.48132895456776 0.6662625119215386 1 -1 0
747 1 0.2333267345685811 15.977252277010773 -0.36060478614336233 2 0 0
338 1 0.6981077128419566 14.64888292621328 1.447813367911147 3 -1 -3
746 1 8.021786714075057 13.444495692215817 3.6983111645557205 1 0 0
278 1 5.41112606061596 14.599859258652495 0.2423498643194717 0 -1 1
435 1 7.094413872104453 15.480746543064939 2.5242753329240575 -1 -1 -1
19 1 8.692544246898397 16.92917240402125 3.4803691497191895 1 -1 0
682 1 17.170712256210702 14.529049132563289 10.307938722367293 -3 -1 -1
107 1 7.76110886218577 15.214231966911484 0.5019144981746317 0 1 0
685 1 7.140896388046548 15.987322818284841 6.930476566383985 -1 -1 3
519 1 8.670064228214015 15.31897121071598 5.307745470318266 1 1 0
166 1 9.236297808755706 13.997820393618278 1.6820983375285237 0 0 2
130 1 12.607606893898247 14.27773136599496 3.5768305039853265 -1 1 -2
269 1 9.538770451368034 16.48597593388142 0.7542228841487337 1 1 3
1 1 10.238490566588183 14.46426337727263 4.1120264755457825 -3 0 -2
678 1 10.94357483934048 16.8647785455094 3.766120372085468 0 -1 0
839 1 12.602618192918804 18.822825788556003 2.7189808079706603 -1 0 0
187 1 11.194822737315663 17.915887912174405 0.8996822606373416 -1 -1 0
82 1 8.444944611056366 14.098563538211065 10.416666394374703 1 1 0
336 1 9.178444197215128 17.480147946221344 7.107693742019749 1 0 -1
659 1 19.01572310486072 13.696373604500302 9.283446769101198 2 -1 2
812 1 -0.1543502219576916 7.800790882084726 10.544030908848013 2 2 -1
749 1 12.96659543685595 16.18101786770037 2.1625796889038935 -1 -2 0
50 1 13.777282010647955 17.525389337996284 4.569938217047161 -1 -1 1
807 1 15.348736692250702 16.16039529478652 3.844378475123129 0 0 0
722 1 16.842861591792577 18.024547866477576 2.137420236637943 -1 -1 0
768 1 13.13940581251748 12.993061946057907 9.80643104708207 0 -2 -1
709 1 21.600205921529124 13.225443411061303 3.0885156773282714 2 0 2
487 1 18.60381899081046 13.432074219697624 1.3474674913929376 0 0 1
326 1 17.070787066522097 17.516312519054036 4.662768752648455 -1 2 0
480 1 15.699714387621324 14.752318451539992 1.2953556324569186 -2 0 -1
236 1 -0.4485217465306567 16.51419742982827 3.164389887054651 0 -2 1
51 1 5.597253693687346 10.488145753840966 10.39654093861479 1 -2 -2
403 1 17.90013704583863 8.75903023116275 10.616030075324872 3 1 0
447 1 20.77185739215949 14.806308382706984 1.6184031849204628 -1 -2 -2
110 1 18.397951609207215 16.257661858800176 1.4406422188839696 -4 0 -2
413 1 13.00638922177612 10.541600965771465 10.328661871997152 -1 -1 1
257 1 0.6747489761092593 19.402242289287003 1.572852157968207 2 -1 0
241 1 1.9978243775637674 17.105175395304123 2.183895287285258 -2 0 -1
429 1 2.730160114656833 19.760350391279022 2.7695582264380625 0 0 -1
596 1 1.4626898029719877 -0.5157624899706903 3.161417763119504 0 0 1
298 1 1.5413663754019118 21.534486291997123 0.7313375974935064 0 -2 0
310 1 2.986559688417617 18.756730452331027 6.123880899362187 1 -2 -1
143 1 0.7172783132360843 -0.48257426469448983 6.133834928061802 0 2 0
306 1 3.990233775381637 20.816871539662774 1.0179911986233443 0 0 2
217 1 1.73921550588418 17.77231869166763 -0.20715751137330363 2 -2 1
282 1 1.0722314870484648 19.402449868385045 4.051657398142193 0 2 1
270 1 5.52198696446248 0.4092531737175392 1.4974893311557769 1 -1 1
615 1 4.1118123972550435 18.276655604222665 1.0597536920183184 0 -2 -1
858 1 9.23869173719163 19.300262022233518 5.193697258773478 -1 0 0
148 1 5.980216531894662 19.712750367672296 1.777181536764124 0 -2 1
214 1 7.763402889520005 19.598924599953097 3.4268082975718688 2 0 1
847 1 6.501618140055957 17.681181689421273 2.323945380453023 3 1 2
296 1 7.88278614640633 18.294178770819958 0.5591811034481391 -1 -1 -3
351 1 5.910607534437483 21.084348542453704 3.8298076143169135 -1 -2 0
516 1 10.517093328256692 20.896315600790775 4.365226162401973 1 -1 0
204 1 6.522896782824424 17.319946042370407 4.85975399010912 2 -2 -1
789 1 9.167600391981402 20.61355527047726 1.184891584241822 1 -3 2
250 1 10.467409833287283 18.992023820858805 2.54525478981051 0 1 0
2 1 11.70342093781266 21.105183368170028 2.5661571437780295 1 1 0
508 1 11.531751295185257 18.826938646011463 5.035123156979383 0 -1 1
627 1 13.290372506617226 20.437949189173715 4.2888067001720644 -1 0 0
822 1 3.8961293043252976 12.138080680421686 10.167255921006324 0 0 1
667 1 14.098502377653647 20.395660302820488 2.079226807306316 2 1 0
22 1 14.76080999592792 17.928176595740844 2.3784281056624463 0 -1 2
852 1 14.397713150549368 19.369183298582662 6.453840498697485 -3 -1 1
12 1 14.905835774609589 -0.4322634288565145 4.2186912685139175 -1 1 -1
537 1 1.6816552075900417 14.106406632031293 9.362039667356873 0 1 0
823 1 16.037630598995474 1.501593822681981 3.2588572367972364 0 0 0
529 1 21.2688863484864 18.108087863951035 10.166343626205316 -1 0 1
153 1 15.56239013805332 0.10874881825292682 1.3291944192379608 0 0 1
281 1 16.723042239473777 20.784524145316656 2.0024349694438186 -1 -1 -3
733 1 18.84059263346053 19.00488296600779 1.467163167531556 0 1 0
194 1 15.449428710369435 19.786925560839087 4.194731282041406 2 0 1
20 1 -0.24460114943154654 17.507717155297932 1.3843481307040697 0 -3 -2
551 1 9.32276735772265 1.7711875383102798 0.4975229312121776 1 -1 3
437 1 18.00368922501438 19.503930051574542 3.430743621106534 0 -1 2
829 1 20.34857083304117 9.344540985552088 10.516676372818837 -1 1 1
525 1 19.522150738707786 17.570624339031543 3.4510472335339815 -2 0 2
120 1 0.6014277120951936 2.552084634230079 10.09156261740498 1 -1 0
348 1 -0.45331832563096697 3.6360432655318524 6.975733227203622 0 -1 2
701 1 0.6122241085426263 1.5744323961508728 7.512793533074536 1 1 -2
18 1 -0.4636147188866136 1.8177852908631436 5.233176447404172 2 -1 2
360 1 3.0183263234941613 21.72722041519866 9.315693837997982 1 1 -2
168 1 2.031875947236632 2.7092423894017887 5.878229167122785 3 1 0
819 1 14.30715446605233 21.154246554060215 -0.15464117254017468 0 2 1
577 1 11.893946911380032 6.225618973096011 0.2963265350126715 1 0 -1
646 1 7.806713563879052 5.153744480108101 0.567422288265846 0 0 -1
526 1 2.869022455371231 2.210869774131136 8.959825659859897 0 0 0
558 1 4.1938427255386745 3.143801289302738 4.736632539446706 2 1 1
469 1 5.298225035764558 1.9743990761419763 6.359463386724228 3 -1 3
412 1 7.4785883644207285 2.009310590108369 7.79170345823808 -1 2 2
466 1 6.062976678759749 4.612168082250639 7.435285298513998 0 1 1
860 1 4.8213582199543765 0.3998362762536444 8.531491241920536 1 2 2
707 1 21.384264635693746 15.401580037424104 9.35115008267586 1 2 -1
357 1 7.251092139708272 0.003335278003743003 9.506823697529986 2 -2 0
149 1 4.871291043326916 -0.3191008371142957 5.947023076086064 0 1 1
58 1 12.694640314948856 2.491725401596523 6.6788754163058055 1 0 0
289 1 10.256053390952212 2.1792031519345563 6.192241163388779 1 -1 2
774 1 13.227507637158723 3.9779733677627007 5.240393023191304 -1 0 -1
527 1 8.528262387730665 3.9451825723974414 7.688314043533637 1 -1 -1
196 1 10.540703537561473 2.9276670499729613 8.508224769361535 -1 -1 2
4 1 19.13661197576226 19.481642124610634 9.239241127925578 0 -1 0
561 1 20.367029326697907 18.259315531120162 7.7056591448135805 0 -2 -1
371 1 17.238433235420295 1.1334949641159837 7.68770782716963 -1 2 1
60 1 12.656578189382673 5.3155924281854885 8.687390873728518 -2 1 1
758 1 13.66264859982621 6.283558684734492 4.478357923447539 -2 2 0
316 1 6.6568816545203155 2.079601045100956 0.5533552567342379 2 0 1
185 1 14.328915128988909 5.297948449116785 6.87822749549899 1 0 0
254 1 13.915724160485933 -0.3073296554314851 6.341854560513813 0 0 1
231 1 16.319073763840542 3.279868906919032 7.120438738530161 1 -2 1
418 1 19.23679481055926 0.17873042134863049 9.449357465626417 0 0 3
446 1 15.721583995260886 0.20767545440144786 9.849508000289221 0 -2 -1
201 1 13.994172518598052 3.3343189696029234 9.385706500821767 0 0 -1
459 1 14.798012321221458 1.7969344448174924 7.742122475548939 -1 -1 1
195 1 19.43389959248258 0.5794629990061189 4.828273079356284 -1 0 0
200 1 21.13162971757584 20.568273352221492 9.846411590952668 -1 1 1
439 1 21.003425413638745 0.39109806638643674 7.2313293880062215 0 -1 -2
414 1 19.63650089367389 2.5507732884611483 6.05828511383332 -1 1 0
771 1 -0.057226307095753604 8.146520711846097 1.0257868938312475 1 0 1
91 1 21.76441684603842 0.520869257123092 9.659887129297683 -1 0 1
69 1 20.080320852837147 2.1861417333807793 8.530936536458107 1 0 -2
686 1 19.709627899511617 20.801819412444857 4.513189456532821 1 0 1
699 1 2.5472103044928214 5.51979966835389 5.237539925105023 -1 1 -1
752 1 1.0580205704545977 19.371738144466683 9.086087674991232 1 -1 0
182 1 2.1341966840129256 4.672749102612254 7.699247777526642 0 1 2
770 1 21.593312102540732 7.121142450365537 8.239520647361113 -1 3 0
587 1 4.211111763776252 4.972212619978129 9.30274469188215 0 -1 1
211 1 1.7469307939725134 6.961163650924644 9.435170168086794 0 2 1
712 1 1.064367555770929 6.520890312591957 7.089292752993389 -2 0 0
636 1 2.9811986702052344 7.976944479118583 5.047826503466047 0 1 0
61 1 1.0775639230302423 6.832538063668336 4.750960359209275 0 -1 0
539 1 -0.01793394868149989 8.563052688496693 6.082285775786389 2 -2 1
173 1 4.901048880279068 5.57166330435453 5.441941507433318 -1 -1 2
267 1 3.848189358151253 3.6741760471896674 7.26454145777559 -1 2 -1
755 1 5.611216818203431 6.991786041833562 8.132752971173774 -1 2 0
665 1 3.5706284084879076 6.4871698474755854 7.194583717130019 -1 0 -1
167 1 5.271467920444919 2.6263054487957396 9.341140763052152 1 0 0
696 1 2.729809733057388 8.656448876664319 7.480005147031022 2 -1 0
299 1 7.888829732611809 7.847779876047319 7.028636230313014 1 -1 1
81 1 9.831278453519413 6.13725451816616 7.114310144172112 -2 2 0
541 1 11.289527823027033 4.435539020650106 6.97295260933829 2 1 2
43 1 9.359138579497486 8.23386192723278 10.451716454860476 -2 0 0
288 1 7.653704749200122 6.226376379441191 9.124307083905197 3 3 1
560 1 9.862226627397554 4.6192676362106235 9.48202963747996 1 1 0
785 1 7.6159141093921185 5.7130157878538075 5.85954058539306 -2 2 1
729 1 19.19432661012208 7.973793843344524 0.7894910279354983 -1 -3 2
559 1 7.12049181658733 8.637412689980144 9.080096056005162 0 0 -2
406 1 11.214468690507868 6.8970868913843155 8.630264483096873 1 -3 -2
126 1 16.501312439648494 2.617696606501359 9.35053468205168 1 0 0
515 1 15.91810610073356 4.942165794873839 8.679568237122051 -3 1 1
575 1 14.33769900513028 16.31100121031087 0.1291900767204397 -1 0 0
384 1 14.802722968823371 7.499393725428053 5.8970253480464345 0 0 0
662 1 14.580920059339158 6.839354112314994 8.166015518046867 -2 3 0
809 1 16.82501897660139 6.1315818562614055 6.886451466103791 0 1 1
339 1 12.187627943064884 6.395242244490402 6.465010781698854 -1 1 2
347 1 17.83049201167999 8.54199413995391 6.484937207195259 2 0 0
426 1 16.263970634446466 19.231402464643597 0.16008781497311064 -1 0 2
632 1 18.080659791861372 4.039056641271635 8.096919749504242 1 0 1
402 1 18.13446183109668 5.637044346627457 10.184631897640845 -1 2 -1
67 1 20.115754955146556 4.44771895102032 8.335985015520626 3 1 0
474 1 19.19380915686733 9.338400499132458 8.199080976921671 0 1 0
335 1 0.17932685051380148 4.821967905770292 9.13547728809081 1 -1 2
272 1 19.232061821711056 6.480310484065044 7.786600024806745 0 1 2
174 1 11.815853759573612 8.523657843026879 -0.3302872079436996 0 0 0
68 1 20.70643552975658 0.4772791024014913 -0.19995487130493161 -2 -1 1
509 1 5.737707429526423 12.00055030814072 7.838057433078145 -1 -1 -2
456 1 0.5412426917632269 9.101960343660496 8.48556319688437 0 1 0
614 1 0.5207254532121981 11.83967041123013 6.948949689371522 1 1 1
535 1 2.4735666089896378 10.738249730392331 8.244471530752353 1 1 -1
542 1 6.849236990555561 13.761652727783286 5.724977932180767 1 0 1
588 1 1.7716063060703928 10.029992485071874 5.64684382880185 2 0 0
631 1 21.49504471979751 10.23951560163427 5.486922635199915 0 1 0
382 1 3.112643114017356 11.034434052200313 4.033540139593519 1 2 0
401 1 0.9741409161793093 11.380922178028678 10.09728143970354 0 -1 -2
33 1 21.35430726201129 11.02588943131863 8.677921144703902 -2 0 -1
40 1 4.005470912622071 7.368817791552724 9.639181834327163 1 1 -1
485 1 8.97427487870553 9.548203922139077 8.336786008388522 -1 0 1
703 1 17.969538192031994 21.358925277960886 8.41988158131991 -3 0 0
311 1 5.013075541200008 9.263634545325553 8.15235724905239 1 0 2
160 1 3.027899883561775 12.425210750517843 6.385795446550329 -2 0 0
268 1 5.196967179895684 8.074619079734418 5.988933947796484 -3 1 -1
389 1 7.596594857269951 10.622070820836594 10.020676138877233 0 0 -1
628 1 4.467676727538967 10.540052112412132 6.271742681022854 -1 -3 0
97 1 7.743077379578814 11.562049553326 7.449247970730044 1 1 -1
835 1 10.995476643444785 9.655955741044528 9.094418147899018 -1 3 -1
320 1 11.653578760882748 11.353789332044002 5.643746192972392 1 0 0
460 1 21.483262680026368 13.249639177413176 9.059416140866594 -2 1 3
198 1 12.880028204179888 8.537557518512864 7.924431723530853 3 -2 0
227 1 6.662649767266296 12.710449306715562 9.753982628995823 0 -2 0
72 1 9.527873154468177 10.56431312398491 5.909840216842706 0 2 -2
739 1 12.496015913356574 8.889159091356328 5.262854821710847 1 0 2
772 1 9.47176612109846 12.947464800139047 6.105847025867195 0 -2 2
705 1 17.329108330544987 11.923124758911802 3.9195817406308686 1 0 1
753 1 16.848944602247172 7.538428648623102 9.06118517713307 0 0 -1
286 1 12.23766249670386 11.510544798197028 7.884394068674327 3 1 -2
291 1 19.845195091722022 14.57902159563735 6.895140718810241 -2 0 0
552 1 14.642095124836905 9.218036622244401 9.099381897183749 -1 1 -1
64 1 21.216869518736136 19.458271226768765 2.7825207462355595 0 -1 0
612 1 14.837463093734874 11.771604763542507 8.793086417835069 1 0 1
134 1 13.975181243795529 10.546969005326888 6.778177221002239 -2 0 -3
234 1 13.777689661989568 12.785180440358646 6.3934585794851415 -1 -1 0
641 1 20.521045930298534 11.713010411004607 4.35592302926663 0 -1 1
32 1 3.8209715499750034 14.764217795138684 10.136517262133808 -1 -1 1
255 1 1.0914659635281592 12.893296586567788 5.141411233207925 2 1 1
261 1 16.284864901641395 11.040828237422547 6.28373469713738 0 1 0
540 1 16.758691621563862 10.097319499735434 8.154432069961707 -3 -2 -1
301 1 19.39760827238509 14.234541329545014 3.410287713662955 -4 -1 0
233 1 16.967244607128805 12.631741665851717 8.61537873506286 0 0 -2
488 1 18.655117547057543 10.769779968510626 5.744030974631009 0 1 0
605 1 20.67583784533931 12.539342612282772 6.6032372977778095 1 -1 0
704 1 4.043470938725866 16.125614345933926 8.205624870255244 0 1 1
369 1 0.20346426138348506 14.191286190091082 6.787429836363425 -2 -1 1
616 1 2.1938015886916236 15.39965037366859 6.818025594236028 1 -1 0
495 1 0.09674073563980878 16.58492193116239 7.283737304511636 1 2 0
803 1 1.3189984780277824 17.040996470432706 4.752218290690836 1 0 1
108 1 3.1000989796348217 14.008057011917453 4.542034662652376 2 0 -1
820 1 3.6135699497766716 16.422496697672063 4.6245072270889 -1 1 0
189 1 1.200472045650408 14.98109930083902 3.6795740416900955 2 -2 -2
697 1 3.714233188917114 13.464844473580474 8.236243844927406 0 -1 1
454 1 5.70244740001081 15.319918359504292 4.409640332984825 0 -1 -1
634 1 4.8010612244323685 14.794326191015783 6.539638447407922 3 -1 3
689 1 5.9873140997748955 14.645640899702332 8.628771964781041 3 0 -1
154 1 4.782327654659708 17.628489075804644 6.7864876513374846 0 0 2
24 1 8.334565639838953 14.202232742236825 7.837405191640125 -1 -2 1
811 1 5.288434378793303 19.884811251471458 6.486595395880692 1 -1 1
277 1 8.90745697765604 15.938594366594266 9.123755402011815 0 3 0
562 1 12.316694287962713 15.895809504050451 5.1688358183188665 0 -2 -1
333 1 7.5279834445466065 3.521996899985348 9.87967199503338 2 2 -2
21 1 19.27620045251301 16.060212106378717 9.746463118292876 0 0 -3
556 1 9.252933885215896 12.50193609053437 8.732004517779856 -2 2 1
836 1 11.55308006682472 13.70322740859396 5.393398123252154 -1 -3 1
775 1 11.195880455416866 14.234131546114709 10.192153123123113 -2 1 0
259 1 10.651528520215322 15.498582483387317 6.677535691907412 0 -1 -2
510 1 11.14954499429784 16.43367415325262 8.72907408245182 -1 1 0
367 1 11.557214831781046 13.610810776768933 7.769323149680385 -1 -1 -1
224 1 13.381121052469188 15.475385036988285 9.966059825480231 0 -1 3
184 1 13.698895456821887 15.524553773524946 7.454150231466091 -1 -1 2
41 1 14.560355784688719 14.809381870210943 5.624284353452535 -1 0 2
851 1 15.51932996934611 16.29132607748551 8.94644499698736 0 1 1
471 1 15.572514144158564 17.19419331517697 6.443623112449048 -1 1 -1
386 1 14.964707394636726 13.978476065031172 8.650403429322182 -1 1 0
578 1 5.029501540765261 17.030093777478367 10.480117078276121 1 0 1
206 1 16.37686350234252 13.205626228120567 6.015689825729256 -2 0 1
321 1 12.027352528476442 16.143118401214593 -0.17611591420220757 -1 0 -1
505 1 18.060400070827328 15.528385141759745 5.355866609727569 -2 -1 1
796 1 18.64681713851563 13.125518492267233 5.440528299326251 1 1 1
461 1 17.91726537854189 17.05297345104711 7.348505190476181 1 0 -1
594 1 20.406432773843598 16.788491255091664 5.419830003568328 -2 -2 2
778 1 21.129406259504126 18.93160585629687 5.126353717120118 -1 -1 0
745 1 17.39218993165457 14.623288333500643 7.84339879682145 1 0 1
375 1 11.786973727548474 1.6673487950046915 10.088542019782615 0 2 -1
671 1 2.5204665373439084 20.75680458411562 7.274909778916349 0 -1 1
741 1 2.717401794939939 17.652531597240145 10.326038456597603 0 -1 2
380 1 0.44978288340293426 21.3170432372744 8.347814790967071 -1 -2 0
244 1 2.1510499980899414 17.55877730306873 7.949926123557132 3 3 -2
782 1 20.495193378428063 20.595820873611682 7.036789265193047 2 1 -1
856 1 0.629516756739082 19.001031485602287 6.850112888328108 -1 0 1
797 1 2.760432302725504 0.8012320752921518 7.233514291859422 0 0 -1
532 1 4.150871376722849 19.432803564411646 8.607112474137658 -1 0 1
566 1 16.126707657091444 21.393016081470947 6.863696740533722 -1 0 1
213 1 0.6266291475600985 16.611791629702328 9.533517885598462 0 0 -1
256 1 7.0850023410273835 0.033390109406357116 6.959983444328449 -1 0 -2
744 1 5.977763682803893 20.919257434539666 8.389562958620436 1 -1 -1
730 1 9.684114293904665 -0.16949859211986967 6.48619413054502 -1 1 1
265 1 6.892010457940252 18.273385686594153 7.35936385238875 -1 1 -2
105 1 4.480076020194865 19.20879503281805 4.243964558564294 -1 1 1
274 1 7.613503438987401 20.932709187593982 5.22588256006832 0 -1 -2
292 1 6.491534620613693 19.20729018037084 9.795048922616154 -1 -1 0
765 1 8.827305876075874 19.77599266896523 7.8304539952122365 -1 -1 0
845 1 13.848931775211847 0.2273527819358615 8.895577193798527 -1 0 0
421 1 11.786051250717845 0.38657596114921544 7.178864674852244 0 3 1
101 1 12.10178059307255 17.862554492791016 7.177860143843775 0 1 0
522 1 11.064127507461006 20.11754505541114 7.0000243178747175 -2 -1 1
25 1 9.465828550228993 18.22024091568301 9.586893964892026 -1 1 -1
161 1 11.53462645390827 21.739643407981855 9.341791706809488 1 -2 0
119 1 13.935979015937416 17.868232050255585 8.62798730237966 -2 0 -2
545 1 11.559863178239606 18.94840931133176 9.15810593110442 1 -1 1
145 1 16.691717982632955 18.891815564468025 8.686247914704468 0 -1 1
603 1 13.217881773511564 20.459681841788555 8.035113106568337 0 -1 -2
489 1 9.740775954790195 2.0607184756065275 10.460554727921693 -1 -2 -1
604 1 16.839867937977512 16.1123307374485 -0.3496903110493552 -2 -2 2
763 1 2.3713338454928734 9.067476224462666 9.909223925652203 0 0 -1
452 1 5.997313546675997 16.970159982544025 0.29776786529241006 2 -1 1
317 1 16.305740742041607 10.54344488942703 10.166572176927204 -1 -2 -1
448 1 7.352172706251021 17.052492323598756 10.622894640258343 0 0 -1
776 1 3.225598109820568 0.11102732867714005 -0.5477542238080062 1 0 1
434 1 3.608661285476039 16.32081784684368 -0.4637707267321005 0 -1 1
642 1 2.75903620716128 2.1619391775619112 13.318590255664045 1 0 2
848 1 -0.002801386685848173 18.22879848015887 12.386115428541435 0 -2 2
547 1 5.634004649665061 0.8056773805601536 15.829346081315716 0 1 -2
78 1 0.8305498292067954 3.921825847365464 12.662188104717679 -2 -2 -2
10 1 3.649230478558212 3.0570565060379056 11.230369475734493 0 2 0