LAMMPS data file via write_data, version 29 Oct 2020, timestep = 300000

864 atoms
1 atom types

-0.24028284781539355 21.504282847813066 xlo xhi
-0.24028284781539355 21.504282847813066 ylo yhi
-0.24028284781539355 21.504282847813066 zlo zhi

Masses

1 58.933

Atoms # atomic

8 1 3.6293478495705664 1.60236104822928 1.50301404139771 0 0 0
27 1 1.5581553122926879 3.36925439785281 1.7109491522657976 0 0 0
146 1 1.5809853569889787 1.4464845948411138 3.342645949829226 0 0 0
173 1 3.390444833313291 3.068375892349509 3.5732511915707676 0 0 0
149 1 3.491293159501893 21.447273532148927 3.6133207452361424 0 -1 0
4 1 -0.20307338208641915 1.6307922545489784 1.7568232646447541 0 0 0
169 1 -0.21945044546247605 3.4800690224258295 3.347438757014742 0 0 0
145 1 21.421933421301713 -0.09542882454669341 3.51611650562878 -1 0 0
171 1 1.8787810017137692 3.2896886779661334 5.349483277302084 0 0 0
289 1 21.46945547976934 21.498695743038688 7.058941001288942 -1 -1 0
12 1 7.200504976352076 1.5276613955617004 1.801708784062137 0 0 0
31 1 5.057512406760903 3.3461798332209707 1.7711734463325906 0 0 0
150 1 5.263075917872398 1.595526907519681 3.425899528594146 0 0 0
177 1 7.033132016337181 3.591398565343167 3.522485833372794 0 0 0
175 1 5.162282037400331 3.123833835299472 5.438990066280636 0 0 0
7 1 5.4968182500220495 -0.16617715355138846 1.7124093638431284 0 0 0
151 1 5.241098299828786 -0.04481025962790239 5.553749007079762 0 0 0
153 1 7.241098550898471 21.2836518314317 3.600783291739402 0 -1 0
35 1 8.712154734240817 3.5038822280817277 1.4460247376094326 0 0 0
154 1 8.961613479205832 1.6237178199446134 3.3590107670891385 0 0 0
16 1 10.536179781751672 1.7068877812339633 1.5009227534114944 0 0 0
181 1 10.468177669598958 3.3889533877515725 3.338970501607242 0 0 0
158 1 12.202087814574467 1.524407780742729 3.4412982690830924 0 0 0
39 1 12.449751085936509 3.3902836300256585 1.3784647288886462 0 0 0
15 1 12.557431362177345 -0.16289491471159112 1.5932187385456884 0 0 0
11 1 8.927289029908946 21.371741996891732 1.4507741542038217 0 -1 0
412 1 21.44240536985627 19.636035691677485 8.723601335517344 -1 0 0
409 1 -0.09601188989713094 17.898858659471507 7.137803771371886 0 0 0
20 1 14.067236466429907 1.6330170503747534 1.513871224403219 0 0 0
43 1 15.83555482107927 3.8308574047649113 1.5009015991842458 0 0 0
162 1 15.876665822370125 1.6160730805454633 3.245318488012114 0 0 0
185 1 14.129335219842986 3.398169554914167 3.355884461234143 0 0 0
187 1 16.221673661142926 3.2338226327340207 5.187084741593143 0 0 0
161 1 14.363888777266414 21.461696146432313 3.401249827804199 0 -1 0
98 1 1.8317245730391298 15.874696997222763 -0.20316752631172347 0 0 0
287 1 19.62417232835682 18.069614450685304 4.9565573128777825 0 0 0
18 1 15.726903933900797 1.9482158592750003 -0.23455746637722 0 0 0
81 1 6.744190104414947 10.468280556529349 -0.017989618305387256 0 0 0
167 1 19.72787390218127 -0.12771107686706662 5.07809672755971 0 0 0
24 1 17.62459806247137 2.0773717537117666 1.2822649752921704 0 0 0
47 1 19.59529286653608 3.4693040821738603 1.7211809831134088 0 0 0
166 1 19.809810130050337 1.721528602335321 3.5531415981833674 0 0 0
189 1 17.992240341650955 3.4255257272766912 3.473600395164356 0 0 0
168 1 17.96286210185996 1.5273230952785228 5.3642943345991565 0 0 0
23 1 19.52663537616291 0.23829842709927895 1.5591393657409227 0 0 0
191 1 19.72764177128059 3.7658707285405137 5.075357073438216 0 0 0
9 1 7.129747321105793 21.459741575532494 -0.07071928286060028 0 -1 0
429 1 17.795967646084318 18.045738770690225 6.875312350802569 0 0 0
32 1 3.2140333162706396 5.119841953241683 1.3969202221207913 0 0 0
51 1 1.4628337284531505 6.881409181898847 1.6577414569216269 0 0 0
170 1 1.6509263111360315 5.079594365522371 3.3152585685446168 0 0 0
197 1 3.446507178686749 7.234214035028361 3.3446872717087253 0 0 0
2 1 1.710404824558343 1.5429006981187934 0.009754660236589108 0 0 0
430 1 19.763040647502155 19.370468176760784 7.213080584001544 0 0 0
36 1 6.7712941401117 5.317461729036371 1.6345274993593346 0 0 0
55 1 5.0912559254018595 6.7810829760185465 1.7380871942081073 0 0 0
174 1 4.87340259456039 5.058500890578709 3.5556609818376645 0 0 0
201 1 6.9454791407778815 6.941950700911177 3.585099197926194 0 0 0
199 1 5.088814049624275 7.083401566704357 5.474230425454281 0 0 0
180 1 6.6351966148954515 5.216465651373656 5.2779066389357805 0 0 0
109 1 10.589340632224248 14.176339440861922 -0.2090016094000064 0 0 0
59 1 9.003274278021602 6.819618357485022 1.3787372011474823 0 0 0
178 1 8.8226381070987 5.152016310558939 3.088190241770586 0 0 0
40 1 10.826143014697816 5.37321634761605 1.230102769661177 0 0 0
205 1 10.789917878776642 6.971319805046903 3.053924028347989 0 0 0
182 1 12.237847897492454 5.0765043068218185 3.2120624750758098 0 0 0
63 1 12.476558746088852 7.014608720777311 1.343113849072011 0 0 0
207 1 12.352610801637569 7.139404296517144 5.398060099331065 0 0 0
431 1 19.628884309093984 17.73537574285011 8.963887988566196 0 0 0
203 1 8.790112559371291 6.970520194776402 5.022164208745381 0 0 0
432 1 17.673061787585752 19.722516708039738 8.912535823867328 0 0 0
44 1 14.028306489532355 5.281383644254438 1.5502998969863897 0 0 0
67 1 15.908391984511717 6.866992878801336 1.3853732337122224 0 0 0
186 1 15.926277992883712 5.101371403200885 3.362266511350594 0 0 0
209 1 14.110271559622673 7.040917436233901 3.5015048884945497 0 0 0
188 1 14.185533684117571 5.134738343190951 5.057322640117283 0 0 0
311 1 19.606759106918474 -0.11710266954086979 8.834177539583047 0 0 0
28 1 -0.20544465158402758 5.295789172803866 1.8340102117754529 0 0 0
193 1 -0.04264390273468374 7.2923557942610735 3.209229253767046 0 0 0
48 1 17.77440247245642 5.040693686005 1.4023051541273497 0 0 0
71 1 19.595543641110357 7.177692103199839 1.5031792527859622 0 0 0
190 1 19.660539627299034 5.355058247859684 3.3438188234306696 0 0 0
213 1 17.863579493332985 6.804624693181148 3.429840314936171 0 0 0
305 1 14.221479876788955 21.482531967237485 7.0312585727703505 0 -1 0
194 1 1.4781232759335272 8.970733990213175 3.4068114780149834 0 0 0
56 1 3.451571024023851 8.733455011126296 1.6481718905970268 0 0 0
75 1 1.8794698888012684 10.49155929857213 1.5910930226051418 0 0 0
221 1 3.413943720849249 10.395741487353954 3.570875907523295 0 0 0
218 1 1.6589442990166818 12.284867565815789 3.2887248752975005 0 0 0
80 1 3.5216829326551258 12.456500410264288 2.014831551350952 0 0 0
196 1 21.40457635920952 8.800173817094162 5.324781143805818 -1 0 0
52 1 -0.16750698067515302 9.121731172365577 1.512908484689759 0 0 0
200 1 3.180125965955746 8.691904893112126 5.314330875205813 0 0 0
220 1 -0.04610434662300053 12.414843674050145 4.957134447855608 0 0 0
142 1 19.748462225081035 19.666745441849542 0.012643018486868662 0 0 0
198 1 5.339765585736231 8.573751091847983 3.5553375093008115 0 0 0
60 1 7.000748125973163 8.608199919730179 1.6791295298548197 0 0 0
79 1 5.186154659721888 10.494618459841522 1.901006947935067 0 0 0
225 1 6.833708582600402 10.627412834554246 3.5404037234662606 0 0 0
84 1 7.006708883997174 12.422429513715189 1.4316515557331186 0 0 0
222 1 5.079995938395698 12.347460930877116 3.919335817259645 0 0 0
204 1 7.0771092967914235 8.945266560529292 5.122003580720264 0 0 0
64 1 10.920585511641734 8.769361954227104 1.8078971276050328 0 0 0
226 1 8.542431756731979 12.294163574146344 3.7190529094316376 0 0 0
83 1 8.829224703404007 10.678305285125523 1.52820889664297 0 0 0
202 1 8.661396320094228 8.83648435422246 3.2602397348327115 0 0 0
229 1 10.666111945069453 10.807710416469122 3.155685468248963 0 0 0
88 1 10.705686266143866 12.668144124535779 1.6263789414058085 0 0 0
87 1 12.607406565502641 10.765333495414366 1.491902413957606 0 0 0
206 1 12.90545551639266 8.933064591930677 3.145970455314149 0 0 0
230 1 12.413118216530247 12.624989010284391 3.397229342607148 0 0 0
227 1 8.816242951647814 10.604355559331434 5.032382738331712 0 0 0
208 1 10.693569726356522 8.792295242936815 4.955320827525396 0 0 0
210 1 16.009108119663917 8.434223324416754 3.0727583922720285 0 0 0
68 1 14.287603022574535 8.993348202751653 1.1294262187391544 0 0 0
91 1 16.205027808216734 10.675312647911392 1.57696710952429 0 0 0
233 1 14.465153916535852 10.7117781078544 3.169340593889438 0 0 0
234 1 16.163023910879563 12.379155070174178 3.430183141627701 0 0 0
92 1 14.336800877132012 12.447983691082763 1.7404387871731655 0 0 0
236 1 14.314840519374576 12.719294696255465 5.1607396970180925 0 0 0
212 1 14.410320381066258 8.766482961611587 5.143823514858526 0 0 0
538 1 8.69111040692108 15.883841427288864 10.596897621166804 0 0 0
307 1 15.978638955420095 21.494091359393497 8.84769051338548 0 -1 0
76 1 -0.04176757716823731 12.208717644280242 1.5599868662451573 0 0 0
217 1 21.379099763753086 10.301846592537588 3.640897737879701 -1 0 0
214 1 19.613154256210258 8.738424717465739 3.286614788476891 0 0 0
72 1 17.642605941594166 8.549030857062638 1.1059127615784359 0 0 0
95 1 19.59878144708305 10.5850896479713 1.5560809276046186 0 0 0
237 1 17.69312417396102 10.35843439997871 3.1683635859735766 0 0 0
96 1 18.129729605600474 12.47870913301831 1.5117647594724248 0 0 0
238 1 19.771596464477597 12.247538745459075 3.300167120694598 0 0 0
240 1 18.076824132376814 12.332919573240426 5.323324181533926 0 0 0
537 1 7.076758622901457 14.20978271605681 10.449391025898985 0 0 0
239 1 19.47239108708461 10.384132142748085 5.159403782058657 0 0 0
425 1 14.051314388090583 17.750285805036093 6.950218868582232 0 0 0
426 1 16.038396789735355 19.674098627088682 7.027711471317586 0 0 0
99 1 1.6679635943333637 13.876616226088613 1.4553545251655984 0 0 0
104 1 3.824948233511945 16.116606196082202 1.6021964119715804 0 0 0
242 1 1.5645748892817792 16.1746444931612 3.0876271006993607 0 0 0
245 1 3.443724676318151 14.27168922665012 3.4140025239299443 0 0 0
241 1 -0.054232310028792446 14.06597992460999 3.184479064610462 0 0 0
248 1 3.4832012820193277 16.093377626248913 4.975012786141977 0 0 0
466 1 8.714485274021419 5.516339745692724 10.542544222221302 0 0 0
103 1 5.017479631163136 14.199277863988462 1.9157924639821933 0 0 0
108 1 7.036023751993036 16.147367824052925 1.8228921638660558 0 0 0
246 1 5.297374163111871 15.986492740117484 3.440663371567917 0 0 0
249 1 7.2083291009567745 14.00872632622379 3.2995239225961126 0 0 0
252 1 7.0028461189575335 16.09566794045637 5.095191602137935 0 0 0
474 1 15.941537313508952 5.226555318462944 10.614434076223421 0 0 0
121 1 -0.2334698575626426 17.930167010559117 -0.20269081116521698 0 0 0
250 1 9.159947569988578 15.904024812675694 3.2510726577825837 0 0 0
107 1 8.945111517684504 14.248441838106329 1.6893692623267995 0 0 0
112 1 10.751255517683623 16.19479451038729 1.3332092168460794 0 0 0
253 1 10.599951749586008 14.158233447749836 3.5449876532846196 0 0 0
254 1 12.568359130779989 16.195008459023978 3.3302543186333353 0 0 0
111 1 12.721458529048356 14.123211868209973 1.3167633842645452 0 0 0
255 1 12.530508689035521 14.288607037631484 5.250971537240448 0 0 0
256 1 10.765235021183853 16.260325265910588 5.073348376957825 0 0 0
251 1 9.028313162235772 14.294432511711964 5.252432224799464 0 0 0
115 1 16.34300206768091 14.518642711419032 1.500096904945714 0 0 0
116 1 14.490632366324151 15.931681893981445 1.423012463979527 0 0 0
257 1 14.211237849203789 14.542402094681572 3.2071130309944573 0 0 0
258 1 15.925762443809383 16.35906646566502 3.277601473581727 0 0 0
259 1 15.967433469970832 14.452977708350586 4.985213806893382 0 0 0
260 1 14.159909880618372 16.17673613297757 5.0345911014009035 0 0 0
427 1 16.050744053638958 18.138294740826368 8.758060446856714 0 0 0
428 1 14.126115061782523 19.566607619382342 8.88954864935894 0 0 0
100 1 -0.23130091277179424 16.063624272537613 1.5006220186921764 0 0 0
244 1 21.441048615662858 16.037171161935348 4.946274651059837 -1 0 0
119 1 19.80237197617194 14.414339121461495 1.5312020403181166 0 0 0
120 1 17.902368630999945 16.16800300977757 1.2457234853098453 0 0 0
261 1 17.898794623954025 14.197115511982728 3.365976240422555 0 0 0
262 1 19.77289634068544 16.085314028295034 3.319195221026314 0 0 0
264 1 18.106868522555676 16.218805628551088 5.022839141395687 0 0 0
263 1 19.81331724236558 14.060212643444412 5.004120008285584 0 0 0
3 1 1.842962663546532 21.398458774238833 1.8330327900817562 0 -1 0
29 1 3.2168368502489706 3.314637932603638 -0.23132481783310047 0 0 0
123 1 1.7408096899946113 17.929121695993146 1.2536802348570992 0 0 0
128 1 3.5078231991022877 19.530484992737925 1.5265019114622607 0 0 0
266 1 1.3700402956898219 19.706626547929737 3.6575538341420875 0 0 0
269 1 3.5498062709488565 18.03205383215891 3.336789053779992 0 0 0
272 1 3.3806268811860507 19.739803147800714 5.254694468020561 0 0 0
124 1 -0.03733928537867259 19.890639479652677 1.8117831607882273 0 0 0
147 1 1.7068918936064517 21.50349566965707 5.509728814468719 0 -1 0
268 1 21.42276338818028 19.817809179304867 5.28906145126095 -1 0 0
446 1 12.649512207172153 1.528510545671918 10.560196812654702 0 0 0
423 1 12.304550878310055 17.86185179570948 8.876816311582012 0 0 0
127 1 5.442211586845823 17.84762296688403 1.518156686253777 0 0 0
132 1 7.039558080270971 19.671615628389624 1.585667042112786 0 0 0
270 1 5.297453779910989 19.78104472621604 3.231552650190071 0 0 0
273 1 6.874707374069487 17.863030749650026 3.506889101926894 0 0 0
276 1 7.212419000333073 19.575660402795364 5.213985226577618 0 0 0
271 1 5.383232216816489 17.884648356699092 5.166839375710944 0 0 0
157 1 10.597766152319727 -0.04343023164379867 3.3345608180613637 0 0 0
155 1 8.881997567015253 21.389698420944004 5.450611830364258 0 -1 0
159 1 12.432948966930569 0.015456001641806771 5.393137444425158 0 0 0
274 1 9.186488233660851 19.635513107135154 3.402793780662982 0 0 0
131 1 8.804280237257375 18.07028645249079 1.6508945632746295 0 0 0
136 1 10.985260586046639 19.782447459367265 1.4581804706895194 0 0 0
277 1 10.918791090664277 17.94476038829035 3.325544796241457 0 0 0
135 1 12.758786712879377 17.852319621382538 1.360143745581626 0 0 0
278 1 12.378489004896304 20.155956349871488 3.4914658154693132 0 0 0
418 1 8.720210608857801 19.588347077703016 7.067398285572154 0 0 0
284 1 14.271879028269176 19.78932835263419 5.361389594219568 0 0 0
19 1 16.05239714042639 -0.22133814793263806 1.2066155572047985 0 0 0
283 1 16.001216803463137 17.958953410314262 5.123549359998867 0 0 0
139 1 15.942084446834542 18.121329016441603 1.5379934491075182 0 0 0
140 1 14.337554339869326 19.961095054827002 1.6914680011645034 0 0 0
281 1 14.181780164822504 18.40940213539829 3.279702926281122 0 0 0
282 1 16.268880226736567 19.711277324845536 3.5228696375413344 0 0 0
419 1 9.356063728573382 17.780107808641404 8.91247065081122 0 0 0
424 1 10.498452804053917 19.71370025181506 9.0117046018401 0 0 0
421 1 10.713258465631226 18.18967631410075 6.921659944070289 0 0 0
275 1 8.917737730228184 17.792963709117945 4.963121800585868 0 0 0
265 1 -0.1637145012043817 18.046012705572267 3.359054528386778 0 0 0
288 1 18.11213455688118 19.826182908943448 5.2875006491362955 0 0 0
165 1 17.931361697819526 -0.1692832683050205 3.350687054101593 0 0 0
143 1 19.755737950142358 17.857517272510584 1.6058243513560164 0 0 0
144 1 17.976981221110126 19.757268926387912 1.390709013588613 0 0 0
285 1 17.978866341667604 18.001365351175576 3.271403989733718 0 0 0
286 1 19.74756942718055 19.85124413166962 3.164140005067095 0 0 0
152 1 3.1849628774114196 1.4357360049443955 5.579034828327467 0 0 0
290 1 1.4226962699761208 1.7367408858634317 7.344457399836379 0 0 0
296 1 3.452765074957217 1.3095941817447894 8.683079324627487 0 0 0
315 1 1.576062555660178 3.384669012025565 8.85429600394402 0 0 0
317 1 3.507375978498113 3.3279920190209373 7.267343236970122 0 0 0
313 1 21.374279205927103 3.3742017324848392 6.882908561021531 -1 0 0
156 1 7.113671177176518 1.6795801547490015 5.039950732504106 0 0 0
74 1 1.88460699184296 12.202524558229277 -0.10151059933758763 0 0 0
294 1 5.347745654598019 1.5593603394884008 7.098536165753555 0 0 0
300 1 7.1268374189246755 1.9506548848671708 9.010088605058463 0 0 0
319 1 5.107473805328722 3.6713253747040993 8.762206467986854 0 0 0
321 1 7.013047001148876 3.3671503256669735 6.988756217509481 0 0 0
295 1 5.075332005890771 21.29119552331306 8.860974246102055 0 -1 0
53 1 3.432544577693763 7.132721061307025 -0.18479686516460261 0 0 0
291 1 1.3259864872694946 -0.12163000639673617 8.735340712319493 0 0 0
183 1 12.558039025393487 3.200513703044071 5.179509175107594 0 0 0
160 1 10.602736674908565 1.6119676096536555 5.139330276528697 0 0 0
301 1 10.243379645108803 21.485577740983178 7.250096828220799 0 -1 0
299 1 8.672332439495142 -0.08334050833489595 9.09232985251927 0 0 0
179 1 8.87910411103543 3.626703406507068 5.081055564128685 0 0 0
298 1 8.909782917540458 1.6934199922716737 7.262940007557683 0 0 0
323 1 8.718612438470423 3.540226113110406 8.855465194295224 0 0 0
304 1 10.525869149625011 1.6539808090829722 8.991298020966024 0 0 0
325 1 10.506981075925754 3.5857706925211157 6.885449485856857 0 0 0
327 1 12.509057557189506 3.4862497263737495 8.713506258362976 0 0 0
302 1 12.336602907855953 1.5396486033430525 7.254835459712351 0 0 0
574 1 19.42653483445444 20.045993769621358 10.543212429348843 0 0 0
280 1 10.653500350800448 19.60905140500583 5.1629424138786435 0 0 0
164 1 14.345205683305634 1.6126331514842478 5.207901008714499 0 0 0
163 1 16.349570496947685 21.299563724160087 5.068953168255509 0 -1 0
306 1 16.13977954954508 1.5433970938404724 6.987854727520544 0 0 0
308 1 14.533603653312577 1.7758201700593208 8.745948648723722 0 0 0
329 1 14.261280935755039 3.3766726844002406 7.0233522695914505 0 0 0
331 1 16.31733168110124 3.1964764118439835 8.633828051050441 0 0 0
279 1 12.4716641419444 18.11840832826156 5.234352155092781 0 0 0
148 1 -0.2376776535289983 1.7068353346315561 5.320447718059661 0 0 0
292 1 21.290578351523713 1.611179665262166 8.794507538251613 -1 0 0
309 1 18.106165270827084 21.244100564054534 7.1469692384889125 0 -1 0
310 1 19.79617180833917 1.5740220597787544 7.065724651355134 0 0 0
312 1 17.833964549121095 1.4904464420579573 8.862611270821347 0 0 0
333 1 18.094798109065202 3.251441639615892 7.0689635775021715 0 0 0
335 1 19.621329027910804 3.214686665218662 8.837645825525572 0 0 0
422 1 12.34295915009803 20.047821953720504 7.191266724525036 0 0 0
176 1 3.4169542492052476 4.954341529838841 5.256785107014833 0 0 0
195 1 1.5977966136320456 6.934192288825724 5.163415404698797 0 0 0
314 1 1.5881356266728308 5.179058013073872 6.97442503834281 0 0 0
320 1 3.226869760295104 5.1061980970653025 8.857856159987149 0 0 0
339 1 1.5303702479540189 7.037805360096947 8.949959488302808 0 0 0
341 1 3.3310010814513875 7.004001610524077 7.151373098654982 0 0 0
337 1 21.222684530789987 6.74153709725476 7.0353924103728795 -1 0 0
318 1 5.211914384799335 5.190986749309583 7.275701971973991 0 0 0
324 1 6.986244262472066 5.684370041880319 8.891348302772023 0 0 0
343 1 5.023250720970854 7.033698590146022 9.054957661311478 0 0 0
345 1 7.111655653719666 7.286887476945745 6.864003721327374 0 0 0
184 1 10.596823133063557 5.5288282885662134 5.296225219547146 0 0 0
322 1 8.561706362572485 5.359630653400787 7.067885357660338 0 0 0
347 1 8.615363599550184 7.38401405646033 8.727647050071171 0 0 0
328 1 10.628141878945204 5.131958047483486 8.70675131093211 0 0 0
349 1 10.25836383081223 7.083431002179171 7.036198812926187 0 0 0
351 1 12.37274693927299 7.0409878752420845 8.949794283137138 0 0 0
326 1 12.312572584592871 5.198440727104327 6.885327741196611 0 0 0
211 1 16.073900535236596 6.759063167720433 5.158685342984847 0 0 0
303 1 12.242353982767535 21.407584423518298 9.134063958658059 0 -1 0
330 1 16.181493849846234 4.9965838169211585 7.104350106459134 0 0 0
332 1 14.07319699017908 5.335619793448196 8.7320178767799 0 0 0
353 1 14.301583206165507 6.966581017324348 6.85685394518863 0 0 0
355 1 16.11725817762104 6.9511780521543765 8.674522380361996 0 0 0
172 1 -0.09411341693021172 5.340821491284063 5.205498557365448 0 0 0
215 1 19.574796193273986 7.0711095616746995 5.0438404168140005 0 0 0
192 1 17.77240449460808 5.208963418898353 5.227119476045968 0 0 0
316 1 -0.01533122422990757 5.300094881080267 8.821645646424374 0 0 0
334 1 19.669315909918385 5.009434517870761 7.249899132897812 0 0 0
336 1 17.77997934636467 5.208654695078413 8.817891423822266 0 0 0
357 1 17.846630741101016 6.984349420377405 6.903657654277256 0 0 0
359 1 19.343382375381772 6.981858796859327 8.832399868767144 0 0 0
224 1 3.398575599461608 12.842525532006558 5.362902961873258 0 0 0
267 1 1.5244034272581908 17.730949016764022 4.965284158976653 0 0 0
219 1 1.479736769482396 10.624508104087338 5.604147168631805 0 0 0
344 1 3.2651343453444928 8.719212068069375 9.104815836946951 0 0 0
338 1 1.1363908052691416 8.369995693479384 7.049360218636076 0 0 0
363 1 1.5002113768275611 10.436454411814454 8.979213959993109 0 0 0
365 1 3.37295529961662 10.829210313594729 7.202020696482009 0 0 0
368 1 3.261317889369657 12.807566631551367 8.515017470216497 0 0 0
362 1 1.411766368535158 12.725962268135829 6.894693837485679 0 0 0
340 1 21.383076188626752 8.50725454731013 8.982203311433157 -1 0 0
293 1 3.5719121828544065 21.304650973925295 7.11864125700634 0 -1 0
223 1 5.200271291840893 10.459366967093755 5.375387699462587 0 0 0
228 1 6.904234403965605 12.397742476181838 5.511290846831513 0 0 0
348 1 6.971808473626474 9.016139880550558 8.946724146802849 0 0 0
342 1 4.964952465091892 8.80259750533791 7.275990262392404 0 0 0
367 1 5.039661509145097 10.513807947918831 8.836635563383048 0 0 0
369 1 7.114784213384093 10.456128366970042 7.074350582558954 0 0 0
366 1 5.462158782516711 12.65552307358002 7.326591885314333 0 0 0
372 1 7.0243716781332735 12.323313484818913 8.841682454708065 0 0 0
411 1 1.5699772004953654 17.732809583878577 8.899087036835308 0 0 0
408 1 17.74463823292436 16.209625208243963 8.719360913609966 0 0 0
415 1 5.361750883144938 17.839927070037735 8.919621920603939 0 0 0
232 1 10.70976647852685 12.336740419598023 5.142640788287493 0 0 0
231 1 12.718834585451956 10.663362978290944 5.070381905586238 0 0 0
352 1 10.874545271535982 8.792225137326021 8.59793534478464 0 0 0
346 1 9.065710721172026 9.00500054940238 6.918218585296038 0 0 0
371 1 9.044401500727233 10.752582575963896 8.814724558014614 0 0 0
373 1 10.731095379893658 10.845207865477162 6.828213922963596 0 0 0
376 1 11.00762932105645 12.5518095212771 8.709560086370669 0 0 0
374 1 12.593242193825347 12.507820564842174 6.957453276225688 0 0 0
370 1 8.82157326855466 12.284055466592656 7.08769753200062 0 0 0
350 1 12.263056325557596 8.791530838452186 6.7695930823344925 0 0 0
375 1 12.460297259532958 10.492524946036264 8.660573475965714 0 0 0
414 1 5.352388491865997 19.61211460526839 7.268718393426493 0 0 0
235 1 16.059127779714427 10.705940660251677 4.925545041785085 0 0 0
354 1 15.906040544517637 8.623569022447782 7.021436986444559 0 0 0
356 1 14.152328345824177 8.917121462093599 8.83907410809383 0 0 0
377 1 14.444868944221714 10.755131921952891 6.804520507101919 0 0 0
379 1 15.921907716696143 10.642373986522006 8.771501767924986 0 0 0
380 1 14.33198676168485 12.544265683683264 8.899380321790046 0 0 0
378 1 15.9920231918586 12.569907841022623 6.724537240302474 0 0 0
420 1 7.301542868175832 19.604674672022668 8.88752507238532 0 0 0
417 1 7.103817123209918 17.74169410842755 7.006989146158585 0 0 0
216 1 17.548712023604317 8.868512768611682 4.8941318225149395 0 0 0
358 1 19.462577661373672 8.766079552624143 6.882628789672734 0 0 0
361 1 21.451693543401284 10.36540205882601 7.34215433019759 -1 0 0
364 1 21.444103923351136 12.80428130140682 8.585628049922065 -1 0 0
360 1 17.90249090451189 8.955456759645974 8.60451886334002 0 0 0
382 1 19.86415043012927 12.222876385488068 6.873073063269416 0 0 0
381 1 17.61340675970155 10.447073653785399 6.907610129699592 0 0 0
383 1 19.541726882333478 10.377065239659085 8.622528012405782 0 0 0
384 1 17.829211485739197 12.417231053775613 8.272583635038584 0 0 0
546 1 15.971768675856648 16.36367490224643 10.55418845016225 0 0 0
243 1 1.6894511123716562 14.394447856003358 5.0837785085422675 0 0 0
297 1 7.1470497061292875 -0.124098646656083 7.0465556608079005 0 0 0
386 1 1.6453062020901177 16.094768469554765 6.896322839888626 0 0 0
387 1 1.563443329587486 14.359707579567113 8.986117953262108 0 0 0
389 1 3.492680891913847 14.575306108950851 7.101282606218975 0 0 0
392 1 3.371958095259062 15.997389871052192 8.92589781363805 0 0 0
407 1 19.464199678040398 14.270250075095985 8.314931566377489 0 0 0
406 1 19.83790303349153 16.339087593906868 6.603385656492909 0 0 0
247 1 5.43538687226583 14.277914901761628 5.563178103958434 0 0 0
390 1 5.41564119460371 16.119756414486325 7.13896350728502 0 0 0
391 1 5.338328921754175 14.46960177144582 9.175081380704615 0 0 0
393 1 7.299833961310502 14.448413229448368 7.146765228489501 0 0 0
396 1 7.2336780161211385 16.157661833550794 8.69633069987269 0 0 0
394 1 9.12713846897762 16.297465220974292 6.877609279449271 0 0 0
399 1 12.697098827400117 14.562429818488628 8.921366972340252 0 0 0
398 1 12.293459143049908 16.157066855363155 6.792055463872537 0 0 0
395 1 9.010585131525303 14.252426409175786 8.54189905211486 0 0 0
397 1 10.727648209894685 14.04367794950235 6.764452900949288 0 0 0
400 1 10.533272089689374 15.88970738196559 8.810146993000439 0 0 0
413 1 3.349428186849863 18.078586486647378 6.927052736184063 0 0 0
416 1 3.4508435238105264 19.681716625841695 8.740708689713127 0 0 0
549 1 17.723095412530565 14.55816363279828 10.411633051469193 0 0 0
404 1 14.184420240916165 16.334865311359252 8.896160175333568 0 0 0
402 1 15.913920032246754 16.146400755999128 7.020064215411053 0 0 0
403 1 16.00174274387744 14.294505760649084 8.763800011829519 0 0 0
401 1 14.27003219193209 14.501934400312424 7.087859275625017 0 0 0
405 1 17.965900644659047 14.403463622311838 6.566853560972348 0 0 0
410 1 1.672940404872507 19.819942779301726 7.207319382313374 0 0 0
385 1 -0.22707392346409705 14.41187350881744 6.743014133085072 0 0 0
388 1 21.351251515526965 15.890221551278547 8.74634321686075 -1 0 0
30 1 4.989718122565284 5.251160604411592 -0.21070235624218517 0 0 0
433 1 21.45776058900915 21.46374714038763 10.499259232102776 -1 -1 0
50 1 1.7792851480778649 8.77384713374008 -0.17464205987342046 0 0 0
558 1 5.429227031219851 19.5794253828206 10.520252633078305 0 0 0
97 1 -0.08384712481730788 14.178831441121094 -0.17352966190933627 0 0 0
553 1 21.35555199599826 18.002629438352518 10.6088522452974 -1 0 0
550 1 19.74819750706323 16.092452814334965 10.608882307330077 0 0 0
526 1 19.1500105781385 12.521063859033513 10.274065983012601 0 0 0
509 1 3.371554546511722 10.997634533481635 10.507120599924152 0 0 0
522 1 16.478350678598286 12.332827087408988 10.51893674003195 0 0 0
478 1 19.709228113392967 5.3126667081326255 10.466071988658966 0 0 0
505 1 -0.22924411618598126 10.934692978130768 10.61226082502829 0 0 0
1 1 -0.16685446532823012 21.363718029157585 0.1275349630288578 0 -1 0
494 1 12.455771304478501 8.756567375739001 10.586247630371053 0 0 0
554 1 1.4749508775155886 19.61861166488388 10.483720736592335 0 0 0
506 1 1.3077723016361893 12.496634508668556 10.539143165106289 0 0 0
438 1 5.155987701045363 1.4869751191633034 10.350995105786584 0 0 0
493 1 10.470657547404473 7.182383349156768 10.389997676858115 0 0 0
33 1 6.8962207670522195 3.297689944072355 -0.1302557029171288 0 0 0
41 1 14.04704743714023 3.614917275059386 -0.1806156225662845 0 0 0
541 1 10.897375327183605 14.339122487115842 10.417814362373328 0 0 0
514 1 8.983588519662364 12.568286340592254 10.345877015153864 0 0 0
457 1 -0.2276765414695845 3.418814216961854 10.571559255925699 0 0 0
518 1 12.544543837471776 12.261179256410983 10.45159688608745 0 0 0
22 1 19.96253186007154 1.6995227077870567 -0.11657851589570868 0 0 0
557 1 3.4365361954059748 18.1319598060784 10.578274778086122 0 0 0
101 1 3.588537387215469 14.340717229542914 0.14072737635911825 0 0 0
477 1 17.789404788232055 3.3383472683511313 10.585249775239575 0 0 0
525 1 17.647240084638266 10.2505604451402 10.444760777854418 0 0 0
105 1 6.599822108144072 14.174145304352264 -0.03979711717148046 0 0 0
54 1 5.469169453879741 8.632695854858882 -0.16448539438026274 0 0 0
5 1 3.4870904141378776 -0.20134289671970507 -0.17228410544577255 0 0 0
501 1 17.88820840589778 7.02870796257215 10.529369586741968 0 0 0
530 1 1.1049528519990062 16.170264882753294 10.626800091648557 0 0 0
498 1 16.05112849840456 8.66817950803614 10.534111759872136 0 0 0
562 1 8.916972037462742 19.836370275077947 10.582119722615383 0 0 0
6 1 5.294688683184207 1.5857297864525237 -0.07357364822415846 0 0 0
502 1 19.52836690353495 8.760944621933941 10.615673408300568 0 0 0
445 1 10.542887214332984 0.036231605799374955 10.588732141403959 0 0 0
90 1 16.058948088553816 12.350682019635286 -0.21003102440750965 0 0 0
118 1 19.81128070671866 16.21791879221999 -0.1567727095845548 0 0 0
37 1 10.638465284310573 3.5135932199507516 -0.14639688474435175 0 0 0
434 1 1.4135404135578895 1.4937790269811309 10.618683760790752 0 0 0
94 1 19.981568011731866 12.494826415752868 -0.22811057910620036 0 0 0
440 1 3.5378670777388073 1.4964843056780583 12.41822248789325 0 0 0
459 1 1.586130383172217 3.385536805465005 12.495164691476557 0 0 0
578 1 1.3004796894430923 1.179542460747605 14.124153274113091 0 0 0
605 1 3.0950591092062454 3.165000752146849 14.35718617120284 0 0 0
601 1 21.450659845954437 3.121228141104472 14.285742581903351 -1 0 0
436 1 21.456918637807885 1.5104888566112709 12.319090507818133 -1 0 0
581 1 3.3489044679040307 21.491588009012382 14.508103939694342 0 -1 0
584 1 2.958200005262648 1.6288908352143112 16.14052348259797 0 0 0
603 1 1.424450012262184 3.4346560083720408 16.05000343202107 0 0 0
579 1 1.5362360278140064 21.253209922611227 16.20026702785912 0 -1 0
449 1 14.357494248235216 21.25073148800437 10.820579488403462 0 -1 0
453 1 17.597452838785422 21.349983177189703 10.830072715289292 0 -1 0
444 1 6.808287156076533 1.5592887402923157 12.247626398190459 0 0 0
463 1 4.90323221829335 3.3165038354404133 12.837830357782748 0 0 0
582 1 5.2680169353850665 1.5244028821210154 14.424583404797335 0 0 0
609 1 6.822389178932437 3.1278489318407696 14.479622154297038 0 0 0