LAMMPS data file via write_data, version 29 Oct 2020, timestep = 300000

864 atoms
1 atom types

-0.20195468148372342 21.465954681482962 xlo xhi
-0.20195468148372342 21.465954681482962 ylo yhi
-0.20195468148372342 21.465954681482962 zlo zhi

Masses

1 58.933

Atoms # atomic

8 1 3.365057181527637 1.6477443398357003 1.246461284996276 0 0 0
27 1 1.689504219459839 3.4437726767982406 1.496252462154695 0 0 0
146 1 1.5528461544534824 1.7474795428302659 3.331833080550596 0 0 0
173 1 3.385900556028945 3.3285615652112472 3.400942605930859 0 0 0
169 1 21.437562318662877 3.482802841840323 3.4015562573564155 -1 0 0
3 1 1.6970141042798008 21.372587960963138 1.7643797433190855 0 -1 0
145 1 -0.11744734182898857 21.46250187128061 3.6296699414869966 0 -1 0
152 1 3.3957885821903013 1.6551896507021906 5.308880226061985 0 0 0
149 1 3.557263005726466 -0.06690544208069588 3.4218512784250903 0 0 0
171 1 1.5478430014742348 3.3604489372511015 5.05189481375771 0 0 0
82 1 8.833781401850308 12.504252466183695 -0.18571431800969598 0 0 0
412 1 21.33657679683565 19.492708893096854 8.614867892214212 -1 0 0
12 1 7.049650509537152 1.502600256169837 1.8743025323390365 0 0 0
31 1 5.072184116123955 3.2471594077502726 1.6970261755594305 0 0 0
150 1 5.493500843693195 1.633341542306705 3.720850809859164 0 0 0
177 1 7.415689462609186 3.564808262464416 3.438013932572052 0 0 0
153 1 7.004322854239267 21.315801726652882 3.3742837434825654 0 -1 0
73 1 0.005527590604897686 10.399698334571665 -0.15696766518160563 0 0 0
45 1 17.649023084064055 3.382723458849975 -0.06924064753892067 0 0 0
309 1 17.455869434177835 21.435877134687715 7.0440291962777275 0 -1 0
7 1 5.18852849400148 0.10824282683404807 1.4763668607458849 0 0 0
175 1 5.169670780184292 3.1896488463947956 5.392847434316547 0 0 0
154 1 8.820726525328501 1.5580359054154118 3.3445638329588556 0 0 0
35 1 8.809292165650346 3.4407251018322076 1.7415982481213743 0 0 0
16 1 10.51039718999573 1.4716493714564398 1.6475659661139952 0 0 0
181 1 10.710909175004383 3.540233116075103 3.3327998827470604 0 0 0
158 1 12.148800546192868 1.6383884757886198 3.4269084587544962 0 0 0
39 1 12.411222713615247 3.142164967261414 1.5794003096067066 0 0 0
11 1 8.796333483063888 0.019058161604555007 1.3258127459890103 0 0 0
157 1 10.593792780585485 -0.06825389442723662 3.5759535262227047 0 0 0
160 1 10.506560180273942 1.8467212204047039 5.199150869605168 0 0 0
113 1 14.21247206185731 14.197157155562962 -0.12355706455756353 0 0 0
155 1 8.796228260065906 -0.06952428936702376 5.224337023300669 0 0 0
42 1 16.04739174315954 5.22391425693711 -0.11752160279462627 0 0 0
81 1 7.095700670013729 10.653721030260556 -0.18118959407511895 0 0 0
268 1 -0.04156222067903673 19.9334852779186 5.2113981102092914 0 0 0
20 1 14.303109375214868 1.5553168502379129 1.492943837049676 0 0 0
43 1 16.023594045094242 3.141532872422569 1.696159961942709 0 0 0
162 1 16.14537309496647 1.529189443257847 3.463055963975272 0 0 0
185 1 14.222955385934908 3.58642536583783 3.275586950641689 0 0 0
187 1 15.910294247455262 3.5329408309971644 5.3771936781234 0 0 0
161 1 14.274937611241622 -0.021496639074360196 3.173570158717678 0 0 0
164 1 14.281180007645437 1.943359581016752 5.11437290432256 0 0 0
129 1 6.965416573512179 18.038109080906118 -0.0931626170383114 0 0 0
558 1 4.795449613906691 19.78503985491368 10.248440763978138 0 0 0
287 1 19.94577624128673 18.246206396338632 5.396467258347517 0 0 0
4 1 0.027653194671958342 1.7070095335115958 1.646410244192562 0 0 0
24 1 17.805050035575952 1.608571342902082 1.9324906024097737 0 0 0
47 1 19.398606040355137 3.2036167398663125 1.6388057527019804 0 0 0
166 1 19.794713203904585 1.6200262721119933 3.551779192817938 0 0 0
189 1 17.93186236881958 3.3328699070412022 3.7085679940545404 0 0 0
191 1 19.69075712839696 3.2147874385852186 5.166005716855606 0 0 0
23 1 19.733371872039044 0.18970934951362 1.7486201972771476 0 0 0
168 1 17.84054799160109 1.4384864404975641 5.2033023437559205 0 0 0
165 1 17.971866573541103 21.31794115888289 3.392098875668594 0 -1 0
121 1 21.279248259211137 17.903610547690093 -0.14234884129008812 -1 0 0
429 1 18.05968595361752 17.975199580154722 6.779198435182619 0 0 0
32 1 3.3795947262134205 5.008547319610978 1.6093964623893235 0 0 0
51 1 1.2890889663086569 6.9299017357676345 1.8600245096156423 0 0 0
170 1 1.348016940585998 5.019628016290294 3.5178498184895015 0 0 0
197 1 3.224207037960928 6.866899569954916 3.3397121054967247 0 0 0
195 1 1.883166491169591 6.603363324586097 5.36603883960995 0 0 0
176 1 3.7185988005728166 5.090560934922494 4.976640627349404 0 0 0
557 1 3.373097721651096 17.541774731746216 10.309370388313358 0 0 0
61 1 10.63041751639697 7.03625606174778 -0.171906486853522 0 0 0
36 1 7.160359411829389 5.283460619248568 1.599847205438719 0 0 0
55 1 5.36321517235276 6.844509834873151 1.5633885686699533 0 0 0
174 1 5.337581451907921 5.127392544688206 3.4806804841014842 0 0 0
201 1 6.775816157676584 7.24327635075654 3.343833259292542 0 0 0
199 1 5.0594360882275025 6.975023468661829 5.307965758867089 0 0 0
566 1 12.108202341814128 19.659811171638047 10.555098751334034 0 0 0
167 1 19.744264729687846 -0.1157440583994429 5.2652859906633465 0 0 0
59 1 8.89127675618923 7.116693796596747 1.5826777143919992 0 0 0
178 1 8.689160440815439 5.68254546315139 3.3738510937512296 0 0 0
40 1 10.656720601762482 5.339426975070252 1.943858716718271 0 0 0
205 1 10.737910715781993 7.186171483976908 3.4725186054627954 0 0 0
182 1 12.652524419886586 5.3304073710296525 3.1667692632291837 0 0 0
63 1 12.298139045255423 7.348707045202883 1.4298908717515753 0 0 0
44 1 14.672027165694498 5.311610601191943 1.5608963538617087 0 0 0
67 1 16.04284365990848 7.134961439142624 1.8058119674694164 0 0 0
186 1 16.194179756853828 5.208917016600112 3.7472132293148204 0 0 0
209 1 14.151685339812683 7.273325904931826 3.4936740014880585 0 0 0
68 1 14.149387831040587 8.845061569292684 1.6362353877943323 0 0 0
126 1 5.298879102924992 19.578896369935375 -0.19795738900343215 0 0 0
433 1 -0.08376508099475834 21.287387091582424 10.442700957909874 0 -1 0
28 1 21.203248038825777 5.016897063761348 1.4753176924350955 -1 0 0
193 1 -0.17234666736637763 6.876703579826151 3.7457926932781267 0 0 0
48 1 17.648628817196514 5.215200779681556 1.7772032217949758 0 0 0
71 1 19.7659504984204 6.717825582215491 1.5405525993852525 0 0 0
190 1 19.785229561543503 5.054179062770536 3.364770350833308 0 0 0
213 1 18.11919287288358 6.9243847217026095 3.532609580368396 0 0 0
192 1 17.976707451319342 5.1771959547360895 5.448323452255364 0 0 0
172 1 -0.1517729628544835 5.08370031254585 5.756014882136813 0 0 0
430 1 19.51755124802421 19.81270056685409 6.964734442114467 0 0 0
194 1 1.348476469247462 8.694050523814063 3.5523239653920853 0 0 0
56 1 3.2841759880511328 8.221910399112497 1.495663826317872 0 0 0
75 1 1.6589841403797592 10.37787252183652 1.7183289056077296 0 0 0
221 1 3.6316714300965596 10.823048449215703 3.4409209317602287 0 0 0
218 1 1.7399620917106484 12.224040331938923 3.446419850656025 0 0 0
80 1 3.156097356542836 12.595568804355903 1.4350938909981805 0 0 0
52 1 21.3286020741087 8.694168738831491 1.5351013519263668 -1 0 0
219 1 1.7771675399218165 10.288321201237792 5.3372319872007905 0 0 0
217 1 -0.08969098175926477 10.467211500087947 3.2888409583535227 0 0 0
196 1 21.422224390060894 8.600828146792713 5.195890210606718 -1 0 0
200 1 3.499501940560226 8.848292134591444 5.202650909244069 0 0 0
220 1 0.029780801500450343 12.268523811802117 5.242959671403265 0 0 0
431 1 19.53791269991579 17.6515863429198 8.846491886576878 0 0 0
41 1 14.310645618377318 3.3945181703606977 -0.10290757734678595 0 0 0
198 1 4.975555780671971 8.753406652495002 3.062265447894239 0 0 0
60 1 7.09578951012343 9.126124320243838 1.7711712051182342 0 0 0
79 1 5.192454367574303 10.840289062713257 1.8223577257688892 0 0 0
225 1 7.118139352382909 10.787137404014555 3.4195347545986032 0 0 0
84 1 7.0060616765040065 12.562642427645214 1.9785650004901862 0 0 0
222 1 5.097980362747669 12.611429990770073 3.413792933960093 0 0 0
228 1 6.985219953906349 12.385719777471788 5.324835882098209 0 0 0
223 1 5.355484525833446 10.698238938480259 5.034318893821085 0 0 0
202 1 8.83476609841982 9.036033738041706 3.6011756998359172 0 0 0
64 1 10.454397446605045 9.011608076196993 1.644958074250452 0 0 0
83 1 9.03599232040836 11.011578785551619 1.8946556155818146 0 0 0
229 1 10.582444082489655 10.874413700186395 3.423558807861427 0 0 0
88 1 10.627478505822022 12.733543008928837 1.510753922289061 0 0 0
87 1 12.380035844675067 10.963652134572822 1.6327822448012972 0 0 0
226 1 9.009505757780591 12.577399364013617 3.568357418298041 0 0 0
230 1 12.34201658799011 12.693804432907855 3.3088900441990985 0 0 0
206 1 12.39886253678705 9.092204144630832 3.388204135138609 0 0 0
232 1 10.641657811714712 12.369265368921239 5.357672261472995 0 0 0
432 1 17.655236290529235 19.460081541006687 8.663559155297357 0 0 0
94 1 19.5538546502173 12.497443747317389 0.08312176826582302 0 0 0
449 1 13.912039800527415 -0.13262925800263659 10.472545731000583 0 0 0
210 1 16.175231932933308 8.866644860701753 3.4723486684994924 0 0 0
91 1 16.185117113951055 10.954175418007345 1.492145691813524 0 0 0
233 1 14.491025030824591 10.481458296889224 3.1774316758190366 0 0 0
92 1 14.147598362219007 12.48698973445982 1.8140790595564127 0 0 0
234 1 16.01491449798006 12.579481933779268 3.3944162142440293 0 0 0
235 1 16.068262292245556 10.678611077100978 5.265067958246394 0 0 0
163 1 15.619073441104653 21.376470791787447 5.076936874711237 0 -1 0
425 1 14.190347093577488 17.543982581504917 6.998547297761906 0 0 0
76 1 0.25194038443722927 12.165910770862808 1.2624571067655226 0 0 0
214 1 19.781418279417675 8.870932272703161 3.332031559561287 0 0 0
72 1 17.913872514071013 8.853918648557798 1.5105901010949097 0 0 0
95 1 19.643130043151885 10.609925218420939 1.4011056417916523 0 0 0
237 1 17.976802451664646 10.65944426228794 3.342978700739873 0 0 0
96 1 17.79762198891255 12.481780033778415 1.9192677188199863 0 0 0
238 1 19.980001049609722 12.439067510345884 2.993791865221604 0 0 0
216 1 17.89428291413141 9.062130806427184 5.249914830206357 0 0 0
239 1 19.72112327500307 10.611789190695491 5.14166563734968 0 0 0
240 1 17.859826302581226 12.179709809773506 5.0675888991172675 0 0 0
85 1 10.776443174134945 10.883762757587336 -0.17820966407416605 0 0 0
99 1 1.6884004379595419 14.202085811184544 1.3212889983514122 0 0 0
104 1 3.2895833284831903 15.931380574135218 1.5633165801098312 0 0 0
242 1 1.594140005882684 15.667780218958406 3.3890695200539827 0 0 0
245 1 3.358855311676568 14.217223956644656 3.2573763736450547 0 0 0
243 1 1.8591406714439422 14.22306041375172 5.145028477830066 0 0 0
100 1 21.24972867373702 16.447625031386576 1.6630868553700446 -1 0 0
241 1 -0.18704439641748394 14.32085802292815 3.050357204727179 0 0 0
426 1 15.881200199292898 19.528188810938136 6.93336999612854 0 0 0
103 1 5.207635680801883 14.11342852471517 1.6779560088048662 0 0 0
108 1 6.965933914242707 15.888873911500454 1.9286838730654616 0 0 0
246 1 5.143608513184235 15.994383746867928 3.417950147867547 0 0 0
249 1 6.955187381929977 14.241804189545444 3.5297907659404455 0 0 0
252 1 7.359060707853617 15.996881730696568 5.179980516920622 0 0 0
247 1 5.098205848752031 14.202629319811633 4.997594657302694 0 0 0
416 1 3.290507932826035 19.707491351145823 8.446824741586918 0 0 0
107 1 8.935798318849832 14.29565455847922 1.739794708524756 0 0 0
250 1 8.892881386553304 16.034468474373753 3.42314397633051 0 0 0
112 1 10.595970580187375 16.100561936950477 1.5943839609506238 0 0 0
253 1 10.636210078548167 14.492421193263441 3.581911908948722 0 0 0
111 1 12.483451416171693 14.364075317006039 1.6375252630489434 0 0 0
254 1 12.481932756872508 16.086215503702608 3.481855453900302 0 0 0
427 1 15.795052949108939 17.75254236527978 8.873394127593684 0 0 0
251 1 8.726192388469753 14.078455672333037 5.184776355280171 0 0 0
255 1 12.607649073239505 14.279285853796248 5.119421268046283 0 0 0
256 1 10.523630869067324 15.964453852706534 5.440035230087322 0 0 0
78 1 5.287482142306632 12.333899064279965 -0.15325360580754036 0 0 0
115 1 16.030197226226505 14.320350571351968 1.9481088154925956 0 0 0
116 1 14.384211378541343 15.890122850463463 1.85497449569263 0 0 0
257 1 14.329936265927225 14.293878062438978 3.52654120450046 0 0 0
258 1 16.118550852500007 16.293206275411066 3.7666309097861683 0 0 0
259 1 16.24598003933727 14.326657393503192 5.4746415668305675 0 0 0
260 1 14.240126928129698 15.95244489727644 5.324202668642463 0 0 0
428 1 14.075286999591654 19.82071969608743 8.732968074672447 0 0 0
413 1 3.520571556010174 17.62825826434694 6.913450914257009 0 0 0
119 1 19.47796303839975 14.491966475054959 1.6763130065058789 0 0 0
120 1 17.817942577383562 16.0439246973744 1.8278624653544977 0 0 0
261 1 18.21902574178014 14.068787634667729 3.5596058464775675 0 0 0
262 1 19.590287481221903 16.06330432797146 3.6055424633111675 0 0 0
244 1 21.31730563636962 16.000046712784666 5.267002188032061 -1 0 0
263 1 19.827280738235498 13.872809157274434 5.134547921661553 0 0 0
409 1 -0.10908233080131069 17.62355766309127 7.165415679815435 0 0 0
123 1 1.3763241829760549 17.912110211672104 1.717213226050737 0 0 0
128 1 3.3435155088688213 19.584798091424123 1.3964728667590174 0 0 0
266 1 1.6102220386008401 19.59617358739406 3.525399982060149 0 0 0
269 1 3.3303698924339034 17.920579616188657 3.1469777296537176 0 0 0
124 1 21.36184685173427 19.578416052014525 1.7912486819995288 -1 0 0
272 1 3.5111837448613192 19.57918422447598 5.071648093837082 0 0 0
267 1 1.4175795863190541 17.727830282627952 5.176357176188094 0 0 0
289 1 -0.09899988188641728 21.452541971979816 7.094462963656613 0 -1 0
127 1 5.078814750587983 17.60743433881472 1.5822502919511623 0 0 0
132 1 7.074962023599905 19.83412507482521 1.575252743792085 0 0 0
270 1 4.964065078166553 19.91105056814179 3.1463443862638023 0 0 0
273 1 7.04029707245059 18.117585914885748 3.0556672360637087 0 0 0
271 1 5.162325365469749 17.880922076895008 4.812871893059379 0 0 0
106 1 8.495579804153003 16.186184972094594 0.07630330276675723 0 0 0
275 1 9.051325656183062 17.865343321924563 5.270992859337704 0 0 0
159 1 12.378376208105353 -0.04837334306590185 5.06793165544458 0 0 0
15 1 12.32388880817791 -0.16746992049073983 1.5015505668472178 0 0 0
274 1 8.980128747893591 19.958072672918433 3.35882353116449 0 0 0
131 1 9.031683846944661 18.158668541090385 1.7901160690529854 0 0 0
136 1 10.865457307903489 19.52517384875646 1.5826379688932413 0 0 0
277 1 10.651211602700748 17.6203341499433 3.4986263364882997 0 0 0
278 1 12.675398158954813 19.579558012031747 3.2593071882789317 0 0 0
135 1 12.638331086021681 17.61435445605828 1.356877425699418 0 0 0
280 1 10.485056156186493 19.55482131234919 5.090780325763321 0 0 0
279 1 12.628322079205795 17.653395473352887 5.301877474915255 0 0 0
554 1 1.5190811660811758 19.58473175328391 10.234399173747942 0 0 0
19 1 16.068792921549548 21.321141344657615 1.6794875690244266 0 -1 0
284 1 14.08411087082877 19.827708209833396 5.29964759561785 0 0 0
283 1 16.22418174628762 17.920237738123962 5.312449557802032 0 0 0
139 1 15.666706837719767 17.93432462286057 1.7860811551362943 0 0 0
140 1 14.112440948305116 19.625799737691395 1.4638565115759 0 0 0
281 1 14.075950769607877 17.74464095736851 3.3860150017183237 0 0 0
282 1 15.985347929317385 19.50463845288857 3.1874266119248897 0 0 0
147 1 1.6769084328622559 -0.004495905555526425 5.559376655547923 0 0 0
288 1 17.836454615060187 19.668779904622312 5.143220966436698 0 0 0
293 1 3.415146481384502 -0.11527475096709185 7.042770507228227 0 0 0
405 1 17.988939737381695 14.224101986110673 7.0292879741732515 0 0 0
265 1 -0.11330933950789301 17.942160586197602 3.5756299919347345 0 0 0
143 1 19.482015232350964 17.881185539395055 1.5470628523343044 0 0 0
144 1 17.674480353377323 19.662916689273736 1.615501790907913 0 0 0
285 1 17.840331187488577 17.98935806565275 3.6106825460862475 0 0 0
286 1 19.65977286610409 19.756916314766595 3.4942879908300704 0 0 0
290 1 1.370196095228307 1.8610391999977858 6.968120069838712 0 0 0
296 1 3.4370708726679875 1.4924688883889816 8.931310610448849 0 0 0
315 1 1.3796905697364108 3.462221500058641 8.831137014342856 0 0 0
317 1 3.2660977406729934 3.27380493017173 7.365511334753823 0 0 0
291 1 1.671973685428389 -0.04651292908496471 8.504077390281067 0 0 0
292 1 21.31152249049821 1.6728934221872385 8.990626977001636 -1 0 0
303 1 12.17132122989648 0.13460875557657104 8.715321297755608 0 0 0
477 1 17.984778068440555 3.232734091652642 10.58444105896487 0 0 0
156 1 7.2643472452336315 1.7792078912972917 5.074554263095765 0 0 0
295 1 5.332663132525664 -0.1647977654505297 8.536423667295985 0 0 0
294 1 5.3320681653718545 1.6232265467753209 7.211719287543514 0 0 0
300 1 7.174123366632182 1.5958295463835195 8.899058105425368 0 0 0
319 1 5.3504667639021966 3.2395496653280906 9.04609578785126 0 0 0
321 1 7.134759085790249 3.4882872758775294 6.917782079489119 0 0 0
264 1 18.00618097771129 16.027014643876928 5.44161294589176 0 0 0
424 1 10.604872419507942 19.858600073870054 8.696627116169726 0 0 0
179 1 8.948086877028928 3.7758263206773157 5.154113318363193 0 0 0
183 1 12.443314749709598 3.4870644086474596 5.06812158198628 0 0 0
299 1 8.91285639911375 0.09207326366235707 8.716480877012993 0 0 0
323 1 8.87417660115915 3.431881032540439 8.780087994920525 0 0 0
298 1 9.001504160515111 1.727675610414488 6.929376991162302 0 0 0
304 1 10.526497654796026 1.9325248849679793 8.774757902117008 0 0 0
325 1 10.796483258907353 3.5688682020504974 6.970425824168383 0 0 0
302 1 12.303370205637323 1.554837589994193 6.890087389649993 0 0 0
301 1 10.31546737547549 -0.13798155293772751 6.8206108830430665 0 0 0
327 1 12.15146839489519 3.605827325226621 8.927764664421998 0 0 0
422 1 12.371299880619087 19.701188550409114 7.0614628652902445 0 0 0
305 1 14.084805511206975 21.441654056120242 6.907840802805876 0 -1 0
307 1 15.973514796676415 -0.18062382872613014 8.744607380085297 0 0 0
306 1 15.833442546135345 1.8309786289823449 6.881029491025423 0 0 0
308 1 14.227496819188906 1.9960871805896345 8.74300656380495 0 0 0
329 1 14.01975640955468 3.68395599583219 6.958730183692007 0 0 0
331 1 16.032845018146087 3.57417693752765 8.71786083478079 0 0 0
148 1 -0.18351153598047887 1.6958044070435467 5.1262916914510095 0 0 0
311 1 19.806096087566253 21.41470961481294 8.825570724751866 0 -1 0
313 1 21.159705095988393 3.398539932491978 7.2103584463935295 -1 0 0
310 1 19.577697516503925 1.559787255743415 7.350461745144798 0 0 0
312 1 17.571271472558692 1.8778825962337358 8.797343520620142 0 0 0
333 1 17.676326662244893 3.4578558017314784 7.225930498803039 0 0 0
335 1 19.561551211539154 3.3458940818454392 9.037530246042543 0 0 0
314 1 1.6928110280584032 5.101561234055404 7.465450559450877 0 0 0
320 1 3.787664917811824 5.188745600306834 8.815708567613017 0 0 0
339 1 1.7926183895945187 6.884907279961756 9.091529108205453 0 0 0
341 1 3.6393820757790536 6.849660373344029 7.0455350983772025 0 0 0
337 1 0.009411410921080415 7.30049397623752 7.205175850424173 0 0 0
316 1 21.23070380171985 5.169529269057414 8.934723199372892 -1 0 0
419 1 8.842475348590046 17.60353192203369 8.928423079623236 0 0 0
180 1 7.062201085274279 5.52362789659587 5.286981721302901 0 0 0
318 1 5.315774626335544 5.010718102253195 6.839572005675246 0 0 0
324 1 6.911472901328407 5.329490446714013 8.582695188093096 0 0 0
343 1 5.152395095811984 7.117788641627469 8.745248964805379 0 0 0
345 1 6.852089870619774 7.037200611929026 6.99255383851504 0 0 0
184 1 10.9792654750487 5.456576593644776 5.049680006177908 0 0 0
207 1 12.522091782705925 7.288379400794695 5.199615445789847 0 0 0
203 1 8.768315078065026 7.282792533272603 5.193358963478739 0 0 0
322 1 8.988196069013767 5.431981771946376 6.685946112504555 0 0 0
347 1 8.687013955416676 6.962310827184293 8.946292563894778 0 0 0
328 1 10.60742827712241 5.321868685406823 8.655670878311417 0 0 0
349 1 10.614483018949569 7.208970578330812 6.893516029709473 0 0 0
326 1 12.26297541343558 5.5944737850035695 7.121059598441518 0 0 0
351 1 12.49061349307993 7.13357166567302 9.008805752676771 0 0 0
188 1 14.012062618260783 5.346572903438663 5.183540921874756 0 0 0
211 1 16.025873808616012 7.076989341766934 5.454778815392094 0 0 0
330 1 16.10823644850437 5.349170556119492 7.235964749970867 0 0 0
332 1 14.120577740247212 5.275155053739476 8.922740790415592 0 0 0
353 1 14.362186941712396 7.058597086456989 7.070316458896123 0 0 0
355 1 16.099569445693714 7.000636708125271 9.045881040211452 0 0 0
421 1 10.695308293609749 17.93314575469544 7.048142215302575 0 0 0
215 1 19.845632164910178 6.829700556194569 5.369353359492604 0 0 0
334 1 19.606983000211848 5.342685135000693 7.129369197185338 0 0 0
336 1 17.911709110633385 5.095690850847451 9.056072269235733 0 0 0
357 1 17.962471940402953 7.035848620730661 7.264209832262329 0 0 0
359 1 19.705981227452508 7.055135683074373 8.871996192128957 0 0 0
423 1 12.547173976149267 17.84846739006183 8.685019463558836 0 0 0
224 1 3.2390192093131547 12.421814313496027 5.295752286374586 0 0 0
344 1 3.6613771042849796 8.930431336039202 8.726597264997796 0 0 0
338 1 2.0082736741015483 8.54485509994656 6.97658366505858 0 0 0
363 1 1.7906402975377889 10.951583641455478 9.103667116863138 0 0 0
365 1 3.501950036775222 11.02802258630459 7.016989230210752 0 0 0
368 1 3.4688624225791003 12.827060508023777 9.023402995975351 0 0 0
362 1 1.6264238588352764 12.559009590699368 7.03086086241848 0 0 0
340 1 0.21773646006514052 8.979022070598646 8.902487539894217 0 0 0
361 1 -0.01975654422801512 10.486468374341051 6.7650911043578095 0 0 0
364 1 21.45036422191917 12.562646353888695 8.824101908001088 -1 0 0
204 1 6.846118753515593 8.791252201335803 5.100021115489045 0 0 0
418 1 8.697685656661339 19.71307672526523 6.98516340786015 0 0 0
348 1 7.050166533453402 8.863504425080349 8.77387505831453 0 0 0
342 1 5.191688141664914 8.852491625118018 6.728882545955693 0 0 0
367 1 5.217888604252539 10.834112655353119 8.980786634880715 0 0 0
369 1 6.846616278744737 10.496127708138538 7.131801028687757 0 0 0
366 1 5.355268746984469 12.540573108795044 7.036566932651056 0 0 0
38 1 12.28900556761049 5.157088737762343 0.19175133390901805 0 0 0
231 1 12.551293169309009 10.958267244217973 5.360411204658905 0 0 0
208 1 10.661462360448986 8.917577964692747 5.294568314244775 0 0 0
227 1 8.511856983522648 10.580024341631699 5.436432078441971 0 0 0
352 1 10.613548383872592 8.694694130933003 8.858943944360869 0 0 0
370 1 8.585104260075292 12.485464185125675 7.213292413870178 0 0 0
371 1 8.770181219664268 10.697058493150182 8.874526200898078 0 0 0
346 1 8.757864417246143 8.865832034698348 6.999378905640853 0 0 0
373 1 10.607056935676002 10.59525871010332 6.999525670432418 0 0 0
376 1 10.521131565979635 12.242174983129516 8.865489574252296 0 0 0
350 1 12.310879115985523 9.087749457600873 7.159913184187702 0 0 0
374 1 12.557551221462994 12.4928512185938 7.2456352362671606 0 0 0
375 1 12.56695047332885 10.727388602758717 8.915198180836905 0 0 0
297 1 7.228398850177532 0.02834998395688329 6.869054594389655 0 0 0
417 1 6.710605573865138 17.610023049904008 6.769643048542186 0 0 0
420 1 6.733729415610134 19.57327150071128 8.621536243646316 0 0 0
236 1 14.353474113141228 12.6077300647709 5.1779144093848055 0 0 0
408 1 17.973860095926444 16.136085109918795 8.766381122931215 0 0 0
212 1 14.28545666356085 8.953656771891426 5.418396426274452 0 0 0
356 1 14.112128231952349 8.941725765023572 8.837053803428656 0 0 0
354 1 16.010379855063743 8.88783819853167 7.3427397226603786 0 0 0
377 1 14.448756448517091 10.700687506914619 7.155680724466778 0 0 0
379 1 16.257893747178024 10.471826787595107 8.988957676944642 0 0 0
378 1 16.21156082130806 12.422939152308155 6.956042873843481 0 0 0
380 1 14.440244408225581 12.298550237705518 8.90739959897459 0 0 0
276 1 7.053238437217385 19.572869955705993 4.848925008414403 0 0 0
415 1 5.254029814726465 17.719237450829777 8.716214995462 0 0 0
358 1 19.722549905445383 8.7906083724795 6.788087310952716 0 0 0
360 1 18.024814559917843 8.756682774898438 8.908542105582178 0 0 0
381 1 18.003579885892403 10.557588549847061 7.08331748794823 0 0 0
383 1 19.895548004400467 10.392789748485631 8.74770892618867 0 0 0
382 1 19.710127395891973 12.207614567654135 6.952241210350981 0 0 0
384 1 17.883967423219744 12.475269094883254 8.747872592883306 0 0 0
414 1 5.128229074724388 19.424556192787907 6.9353738106737035 0 0 0
151 1 5.290392427181884 -0.059279623507505236 5.482530324378313 0 0 0
248 1 3.383699634809309 15.862506321080556 5.177257970916306 0 0 0
386 1 1.5056292744277573 15.99609710647696 7.04544118832046 0 0 0
387 1 1.795356323321153 14.416065764134393 8.814232726651104 0 0 0
389 1 3.4147546609984696 14.16702060502542 6.990182390625215 0 0 0
392 1 3.510062602545417 16.081067293745296 8.614078337677094 0 0 0
388 1 21.31061770739087 15.946495774623923 8.93200275405826 -1 0 0
407 1 19.75386321634547 14.200423767001109 8.99231922132308 0 0 0
372 1 6.907887819367299 12.503729590456512 9.075161133557271 0 0 0
390 1 5.455117313509598 15.846215666824968 6.94138604967928 0 0 0
391 1 5.2173928914696726 14.315964281869869 8.838432810846045 0 0 0
393 1 6.887971401224479 14.062194966048663 7.057325916639628 0 0 0
396 1 6.988663322838166 15.938108306913424 8.734029548953293 0 0 0
394 1 8.588692758772877 16.151770093284217 7.01490953943674 0 0 0
397 1 10.349787435026082 14.207245190500423 6.959832726790707 0 0 0
395 1 8.485561862966394 14.012924711991824 9.07184750258003 0 0 0
400 1 10.412074272817 15.979170932833746 8.65818123866441 0 0 0
398 1 12.323921533462057 15.718067630186335 7.165170941425145 0 0 0
411 1 1.7160295989763326 17.81080691061185 8.715494322863812 0 0 0
402 1 16.19877248764991 15.922929882923057 7.222657193267618 0 0 0
404 1 14.376775599562372 15.760763060749584 8.770536696996881 0 0 0
403 1 16.366063734209117 14.318607695569074 8.872531000495837 0 0 0
401 1 14.353513177933735 14.410896339034968 7.055216975115684 0 0 0
399 1 12.210439124417878 14.105169558202554 8.901370650400903 0 0 0
410 1 1.7676506957017362 19.400140107446582 6.74667537656024 0 0 0
406 1 19.642558833058303 15.95578933492532 7.025790819995072 0 0 0
114 1 16.079117782758516 15.880208687882398 -0.14846191967189845 0 0 0
385 1 21.267545554366585 14.278311709220695 7.0807136052213275 -1 0 0
454 1 19.556462261112056 1.513850728833637 10.561350467915927 0 0 0
498 1 15.8855022920249 8.88875946775886 10.621621912798144 0 0 0
574 1 19.40019324553975 19.498720574527624 10.478626047952625 0 0 0
561 1 6.939175288846189 17.934413505586132 10.53065851799431 0 0 0
437 1 3.1497865407729035 21.43430062309094 10.382224253265168 0 -1 0
69 1 17.87335775404343 7.145782536882947 -0.1310331117912738 0 0 0
97 1 21.165521696370178 14.318726328551696 0.09302855877114419 -1 0 0
54 1 5.223929356506429 8.91017967321241 -0.03868385800883836 0 0 0
553 1 21.25491577607861 17.797555083879043 10.538923455722031 -1 0 0
65 1 14.318889914183103 6.921061387505885 0.030896966773268947 0 0 0
117 1 17.676505271095813 14.012397350325681 -0.014431058647001643 0 0 0
450 1 16.082400940515072 1.5674829049675139 10.59584236929271 0 0 0
34 1 8.840746259282357 5.585230896859671 -0.09699579114113108 0 0 0
37 1 10.804639821264965 3.138339797793365 0.0989895252207138 0 0 0
482 1 2.0777320477716192 8.666411034623977 10.611473935537774 0 0 0
77 1 3.320143389493763 10.49272032973629 -0.05679047573471985 0 0 0
473 1 14.470395783142266 3.2980322829891198 10.515903419654789 0 0 0
502 1 19.929334323642614 8.96343748050861 10.554971604478764 0 0 0
141 1 17.672386299428005 17.891593967582686 0.06976973545320764 0 0 0
525 1 18.01285899361943 10.891770607901506 10.587661869967038 0 0 0
545 1 14.416577051175954 14.254757759778235 10.401347763334787 0 0 0
546 1 16.06357456491828 16.072411122633635 10.41166984399608 0 0 0
465 1 7.184537361063875 3.5942931343939857 10.537893415458608 0 0 0
534 1 5.331486041952772 16.071329170309365 10.424282703829327 0 0 0
505 1 21.366453632874716 10.632220452485498 10.59529957414651 -1 0 0
125 1 3.1827071721608067 17.803322245286072 -0.09245183109853052 0 0 0
517 1 10.789495102058332 10.632158471517755 10.487523816215127 0 0 0
26 1 1.376291668129303 4.979798149558574 -0.17177354598966796 0 0 0
130 1 9.10810541217309 19.53207327372213 -0.199974351753425 0 0 0
570 1 15.895401802547774 19.735897899544355 10.563475258671568 0 0 0
105 1 7.198054041661472 14.103798926060472 -0.04469817167676435 0 0 0
102 1 5.10266858988672 15.739641567182383 0.16905853707517438 0 0 0
562 1 8.640427772647284 19.433416784500125 10.37587559725933 0 0 0
489 1 6.926602051461305 7.135869496765024 10.46208563152124 0 0 0
501 1 17.920382392469353 6.9916036123680465 10.23645076841499 0 0 0
522 1 16.12581973914472 12.521444466468763 10.524933233962084 0 0 0
565 1 10.595103387101679 17.630071603319394 10.606928066188972 0 0 0
493 1 10.452771898584533 6.986532654511157 10.560164361087374 0 0 0
53 1 3.2631405745492503 6.712875367955918 -0.08792743371382628 0 0 0
33 1 6.929778032842961 3.2124369469612346 -0.00249471044232763 0 0 0
485 1 3.659428037195226 6.937091635390888 10.631555348228254 0 0 0
529 1 -0.19827811350461955 14.228932604018945 10.537143491523928 0 0 0
137 1 14.405103518912133 17.64965476109832 -0.05037870264819233 0 0 0
458 1 1.7807344178842897 5.058142819547996 10.499372623285787 0 0 0
89 1 14.061994136320214 10.719288279657528 -0.1744065054000714 0 0 0
457 1 21.3214068879392 3.4902732185546004 10.564733832113157 -1 0 0
513 1 6.947888668988582 10.541287910442843 10.454641878520382 0 0 0
497 1 14.274420923301834 6.991636479803667 10.585060532221128 0 0 0
109 1 10.57895106336664 14.534809098836282 -0.19799020186666638 0 0 0
62 1 12.293340956220275 9.123840602754715 -0.18109235678185343 0 0 0
440 1 3.2263030489265994 1.4136868120663153 12.281722738395127 0 0 0
459 1 1.5957649023838458 3.6274729218727773 12.471921328771218 0 0 0
578 1 1.6431016615431324 1.6278361481051182 14.161789357827196 0 0 0
605 1 3.4467146679446077 3.530750692104477 14.269975115938623 0 0 0
603 1 1.6995868009866955 3.2213455788556926 15.898479511412482 0 0 0