LAMMPS data file via write_data, version 29 Oct 2020, timestep = 300000

864 atoms
1 atom types

-0.33032002284288886 21.594320022842787 xlo xhi
-0.33032002284288886 21.594320022842787 ylo yhi
-0.33032002284288886 21.594320022842787 zlo zhi

Masses

1 58.933

Atoms # atomic

146 1 1.2522430273757865 1.426778099339047 3.5805380009756456 0 0 0
8 1 2.856807566839111 1.7105100290246198 1.8098565510429916 0 0 0
27 1 1.2829168326618 3.5489762280043617 1.8268924021790456 0 0 0
173 1 3.2377136853335178 3.4762637460841614 3.616919374774122 0 0 0
169 1 -0.2629117797743981 3.4460570169229356 3.7287462645264418 0 0 0
5 1 3.0228339368744064 -0.2691639628683953 -0.07211991992812938 0 0 0
2 1 0.9420854508833383 1.8293994233318678 -0.27348906643805293 0 0 0
12 1 6.557234269912808 1.467472573718579 1.8911305499822713 0 0 0
150 1 5.170053388063609 1.7441059009665238 3.95096210297989 0 0 0
177 1 6.8759410652792585 3.2420659830269574 3.4002145602512615 0 0 0
31 1 4.795847221240893 3.5981288120853057 1.8621491985289298 0 0 0
7 1 4.936848637717492 -0.23171750662543894 1.8663037066177197 0 0 0
6 1 4.8017437081131 1.7757317172301823 -0.1666355642630186 0 0 0
175 1 4.975422124159264 3.720241295445497 5.069605156040533 0 0 0
9 1 6.854785162260027 -0.11020858907773823 -0.021592340560696643 0 0 0
179 1 8.599892966691856 3.3778946815148503 5.121208431188103 0 0 0
154 1 8.776423803195067 1.5307866656838391 3.440554645697891 0 0 0
35 1 8.924190497867372 3.1072394576376987 1.5930915107944736 0 0 0
16 1 10.8256636692102 1.3336327331542182 1.1888590086091615 0 0 0
181 1 10.889059526706582 3.213021039308036 3.0199606739377414 0 0 0
39 1 12.468726035464226 3.12047376703164 1.0102762169234776 0 0 0
157 1 11.006144987283436 -0.21852684993006477 2.964751173730743 0 0 0
10 1 8.660196900310844 1.2253688843505202 -0.13605367520038822 0 0 0
160 1 10.420533932834608 1.6597539169201065 5.139338245640648 0 0 0
37 1 10.405565241372258 3.2155296624377154 -0.3033750784557887 0 0 0
158 1 12.95793297411819 1.363505471286108 3.3789121444509562 0 0 0
20 1 14.320651532059966 1.344859570554739 1.5633709204625972 0 0 0
162 1 16.426854702081286 1.6951700695669452 3.3690840955463046 0 0 0
185 1 14.497139991348645 3.4687116826724957 3.5229197409095727 0 0 0
43 1 15.966149581032054 3.466574143748824 1.3008115610979083 0 0 0
19 1 16.41632648194168 -0.30174292515177115 1.4690785316058104 0 0 0
187 1 16.431814800637383 3.3435200278859947 4.997099871969203 0 0 0
161 1 14.457155302499658 -0.28756756141521145 3.420035003331886 0 0 0
18 1 16.189084858454876 1.5923012223658564 -0.21005917677870953 0 0 0
167 1 19.79555262927265 -0.167921087997641 4.968141171372891 0 0 0
45 1 17.788244229627978 3.183830269924078 -0.16439653253909278 0 0 0
4 1 21.548559378174765 1.459497809595652 1.377610208359695 -1 0 0
24 1 18.325094892051254 1.423318212435204 1.382206000657427 0 0 0
47 1 20.064950471817653 3.3922011824216014 1.6110577536481037 0 0 0
166 1 20.001197465862028 1.6083379963849016 3.3729321540800443 0 0 0
189 1 18.056386396764395 3.4093313042926567 3.112567111827229 0 0 0
23 1 19.93958400022231 -0.2991678914713489 1.425657939954659 0 0 0
165 1 17.90913334565181 -0.18124362283522535 3.252366496311368 0 0 0
25 1 21.3266880821538 3.6694821245266716 -0.18520185564015682 -1 0 0
26 1 1.3823831008696192 4.982550288888585 -0.3084416781431689 0 0 0
32 1 3.1212973441351917 5.134625588777079 1.4487947156073828 0 0 0
51 1 2.0477836614818723 7.311897464813614 1.0986973326513683 0 0 0
170 1 1.8032265208140723 5.096724926642233 3.361473709771059 0 0 0
197 1 3.3306047093189557 6.927355450816114 3.112376656628478 0 0 0
193 1 -0.2320804999128171 7.37737873090282 3.114573245820862 0 0 0
28 1 -0.17648972412960776 5.518803653001965 1.7716506536351209 0 0 0
53 1 3.802102511560146 7.147551830510677 -0.11586335510787032 0 0 0
195 1 1.2076672760196085 6.739051472954433 5.019554846320009 0 0 0
36 1 7.013796342746598 4.841952290503435 1.5018583088256703 0 0 0
55 1 4.983126736719351 6.83113092780534 1.842524491809162 0 0 0
174 1 5.094747373173957 5.3052667530692466 3.5715433114905455 0 0 0
201 1 7.156581233896977 6.822811430465175 3.3273003433649633 0 0 0
180 1 6.977522514285205 4.966350008760695 5.06328392183613 0 0 0
60 1 7.261089112219322 8.420358434468847 1.771123214240684 0 0 0
30 1 5.422550056858377 4.809061838368143 -0.28280695201397776 0 0 0
57 1 6.823194232888104 6.766383337910331 -0.28268151650753026 0 0 0
178 1 8.951812692560187 5.099273910715981 3.485737287205195 0 0 0
59 1 8.922980351725583 6.902189090084435 1.6856839801353054 0 0 0
40 1 10.578724853887634 5.163280348622554 1.5650611969637425 0 0 0
205 1 10.683861883809467 6.782606585651497 3.231798590220815 0 0 0
63 1 12.57274487068144 7.078763800579479 1.5302917927896142 0 0 0
182 1 12.442409833288833 5.046138040355193 3.2053866368512294 0 0 0
203 1 8.937264810801821 6.98703684435798 5.067236195926046 0 0 0
207 1 12.154801598122148 6.586611270554377 5.141363358695727 0 0 0
61 1 10.658556520141357 6.939848642509081 -0.22280099973946432 0 0 0
34 1 8.848122237864013 5.283508120183519 -0.27554040036295646 0 0 0
44 1 14.244572282554994 5.087113457163878 1.5433008869820253 0 0 0
67 1 15.914452396210395 6.970238994549206 1.4238697068009165 0 0 0
186 1 16.091121347285707 5.026484466288687 3.4539370672355303 0 0 0
209 1 14.348216912668896 6.744665455107158 3.3546416677865807 0 0 0
211 1 16.048309394110937 6.859383450093336 4.82468201715482 0 0 0
213 1 17.7889271720882 7.280775353171403 3.55641014991099 0 0 0
48 1 17.57989391950897 5.074643378244733 1.2368237249740155 0 0 0
71 1 19.648816024834517 7.053060240748003 1.477764974700167 0 0 0
190 1 19.679643606924415 5.2908664057008865 3.043855959115985 0 0 0
215 1 19.59837820759595 7.320716927093322 4.942524457120358 0 0 0
172 1 21.307645162714408 5.414513596102818 4.942841833462282 -1 0 0
192 1 18.154783382264604 5.055435851071995 5.08466451465725 0 0 0
46 1 19.32242684988831 5.356113779533614 -0.1777507206426638 0 0 0
49 1 21.537071248654208 7.058040895730006 0.023224296166546088 -1 0 0
194 1 1.634218072920535 8.840045808845554 3.1444704890105992 0 0 0
56 1 3.610123915663706 9.043433618780467 1.5114070699637796 0 0 0
75 1 1.7644841994833174 10.525106583498218 1.5264212628947875 0 0 0
221 1 3.632701755360369 10.563233423956516 3.7384056277867126 0 0 0
218 1 1.6204844861030996 12.078015857777288 3.481324321765617 0 0 0
80 1 3.6889584093914207 12.239523653651506 1.8698972186753706 0 0 0
217 1 -0.276864327839225 10.731823612883563 3.151558571531869 0 0 0
52 1 -0.12109731804797544 9.069007055965773 1.185101962332051 0 0 0
196 1 0.33415820253455064 8.913111788442649 4.97841401536268 0 0 0
77 1 3.6646986138441595 10.572790296056644 -0.3195667969800979 0 0 0
78 1 5.366748649207977 12.512381324203677 -0.1019611038445169 0 0 0
198 1 5.362359311768936 8.547586345244905 3.174437856868105 0 0 0
79 1 5.4997735272698325 10.403371490487654 1.4992826819243108 0 0 0
225 1 7.121561752741836 10.822237511662484 3.370047028987513 0 0 0
222 1 4.982811635022082 12.329671174680241 3.7306128403133556 0 0 0
84 1 6.92919528181357 12.53134828849341 1.8369369512931888 0 0 0
82 1 8.790003288914065 12.759625787299797 -0.22827875483771193 0 0 0
226 1 9.274989958011796 12.490348040406245 3.240975026817123 0 0 0
227 1 9.276865982677299 10.87142829663178 4.948033424507363 0 0 0
64 1 10.707297199832217 8.675156219230919 1.6532223798980377 0 0 0
202 1 8.844081831441217 8.982255543905932 3.5728863705821925 0 0 0
83 1 8.747150209182507 10.800226292107999 1.6427493659660044 0 0 0
229 1 11.018140635710008 10.75584897884771 3.6052422048305566 0 0 0
88 1 11.08829045603286 12.643570047739365 1.544976161499986 0 0 0
87 1 12.556519366025686 10.747340121137208 1.4451968340143742 0 0 0
230 1 12.65413589374357 12.35061880791729 3.6525344727263778 0 0 0
206 1 12.249354918482418 8.876173950777604 3.157710326515062 0 0 0
85 1 10.566746678123812 10.683942409320402 -0.12297593493337164 0 0 0
68 1 14.34186326758975 9.000049740021069 1.9039399279401876 0 0 0
210 1 16.020277283865745 8.83435779020264 3.5397658457799794 0 0 0
91 1 16.200866295745115 10.633250540774876 1.261743620940297 0 0 0
233 1 14.31582100838642 10.583583957925295 3.601546095321263 0 0 0
234 1 16.281332730823905 12.346015931407814 3.2721089947592126 0 0 0
92 1 14.192354402206625 12.055524848761708 1.3432190881522825 0 0 0
212 1 14.119656288033624 8.623579576145586 5.13438477104173 0 0 0
235 1 16.261134799901164 11.018727718362546 5.063921237413389 0 0 0
66 1 16.172594405082336 8.807198937665763 -0.26948167572729986 0 0 0
220 1 21.272940199117375 12.430237022199341 5.106745150482313 -1 0 0
214 1 20.021511300539416 8.952544378821614 3.0746963380899572 0 0 0
72 1 18.01432425370023 8.73335280675408 1.378745147485504 0 0 0
237 1 18.178567671317538 10.693338119498163 2.7996600713607083 0 0 0
95 1 19.85431697946653 10.728673791808527 1.2281953327608706 0 0 0
96 1 17.820089145105264 12.523961203745953 1.2101462834426404 0 0 0
238 1 19.874482252470848 12.234778234683173 3.250204397227556 0 0 0
76 1 21.36734513298488 12.223051083543531 1.3671492461761598 -1 0 0
216 1 17.923086239238643 9.042340698250525 5.027072015903861 0 0 0
239 1 20.08241294561877 10.327060663538909 4.875572252566543 0 0 0
70 1 19.99477968691989 8.735264787470935 -0.3075441888848039 0 0 0
99 1 1.4145992171458948 14.174569026742043 1.1889433227277768 0 0 0
242 1 1.5589037957366378 15.934559912386286 3.425484469170964 0 0 0
245 1 3.562807584679815 14.246405546704525 3.2168327503877654 0 0 0
104 1 3.382680019446987 16.086619119630754 1.3019722753856733 0 0 0
241 1 0.12021744371016435 13.977000614302426 3.5428765301190963 0 0 0
100 1 -0.25275970440706885 16.013088513091745 1.3272151099478133 0 0 0
248 1 3.291462707025828 15.746391391282943 4.982274853272779 0 0 0
101 1 3.3555361932130614 13.804231985430397 0.046863389512626474 0 0 0
103 1 5.294347886452923 14.334194224357928 1.7008779083848875 0 0 0
108 1 6.798406418983005 16.265504946384198 1.5121463954752328 0 0 0
246 1 5.326419147787163 16.0969185923272 3.13475649911214 0 0 0
249 1 7.030000583161875 14.411510625566397 3.387483338396989 0 0 0
105 1 7.112398929272478 14.43716455605701 -0.17412893087410353 0 0 0
102 1 5.280307597231494 16.085077309680116 -0.31593842912373304 0 0 0
250 1 9.144886148462742 16.304697685885458 3.2765664404274766 0 0 0
107 1 9.124200494912502 14.33283075882863 1.4227723395332443 0 0 0
112 1 10.648586870115277 16.443538033170917 1.4192575306835826 0 0 0
253 1 10.915629926065339 14.798678141063364 3.276263767940739 0 0 0
111 1 12.362956486421012 14.350152210013224 1.6923872762591143 0 0 0
254 1 12.536716603887289 16.167890091415025 3.420102487279689 0 0 0
251 1 8.885863781617445 14.13188065798046 5.060931262328007 0 0 0
110 1 12.396685951331945 15.9532971324383 -0.1136300570332125 0 0 0
115 1 16.270635542606144 14.281114443396765 1.6821503419028772 0 0 0
116 1 14.136144540167928 16.28673732572041 1.7914041537984091 0 0 0
257 1 14.496275790631245 13.959778575008727 3.1815241486732555 0 0 0
258 1 16.18412005583165 16.141966932335677 3.4914281977232333 0 0 0
260 1 14.634279659865324 16.259308153989522 5.124095811149025 0 0 0
113 1 14.335570294323318 14.061600016412108 0.1786132355436062 0 0 0
120 1 17.769718831250145 16.040073474009567 1.070902026379549 0 0 0
261 1 18.017568158918607 14.119049938571441 3.4407807156323913 0 0 0
119 1 19.893967566059338 14.42484540246652 1.4497178997107099 0 0 0
262 1 20.228252237304808 15.987110875575516 3.2533620858145484 0 0 0
97 1 21.323492574639666 14.154924027137303 -0.2876519753107303 -1 0 0
149 1 3.223561225381185 21.59328361294307 3.7588640794181796 0 -1 0
3 1 1.6695208403165722 21.215498686498933 1.7810616451642014 0 -1 0
269 1 2.8076782825529625 17.811803475358836 3.1220963629206877 0 0 0
123 1 1.313169132114852 17.87181092860208 1.1191857199071091 0 0 0
128 1 3.15622725354452 19.50579076099323 1.4113480443818807 0 0 0
266 1 1.473998835652128 19.566606513973134 3.50254889522094 0 0 0
272 1 3.25781759731681 19.76500399797181 5.097552417635415 0 0 0
126 1 4.927312820753323 19.83418312151838 -0.16531373330593013 0 0 0
153 1 7.187269499751022 21.56981417186065 3.4423629043249044 0 -1 0
273 1 7.009092112911563 18.167629814252244 3.1809667136236626 0 0 0
127 1 5.224706449816665 17.970740566044284 1.3118534084784217 0 0 0
132 1 6.758764355129274 20.164122543331906 1.6492544845307668 0 0 0
270 1 4.7460617761770045 19.882636434532344 3.3130117282508165 0 0 0
271 1 4.820652836559906 17.790195182705503 4.946863377934228 0 0 0
11 1 8.884774832430029 21.529978228402157 1.2909607931202556 0 -1 0
274 1 8.754837940201533 19.92485353175376 3.507419045732119 0 0 0
131 1 8.46572633204147 17.86415127827504 1.5070953571990564 0 0 0
136 1 10.394448941742915 19.60921330608474 1.6806242432484306 0 0 0
277 1 10.524572112999822 17.95927896122069 3.457899628997715 0 0 0
278 1 12.51067892194526 19.411271360956363 3.7254001069748996 0 0 0
135 1 12.515877125489986 18.12395149799911 1.9187558763387136 0 0 0
15 1 12.821416475952091 21.444982225662315 1.6350757729436283 0 -1 0
280 1 10.632396320795301 20.285175809482112 5.12641836306116 0 0 0
134 1 12.27182701688456 19.674216508020912 -0.0856603953369599 0 0 0
133 1 10.595647360965133 18.161797794490894 -0.23309116934719754 0 0 0
137 1 14.351350602912106 18.263690316532063 -0.045946350276996506 0 0 0
138 1 16.358344032290724 19.693513848889772 0.09963624727376463 0 0 0
283 1 16.60032422672755 18.080273006228026 4.88640143956665 0 0 0
139 1 16.13674212268547 18.0045694564188 1.8489076093809116 0 0 0
140 1 14.645567693548204 19.84879401810253 2.0373293119767806 0 0 0
281 1 14.409764181603792 18.018366198441306 3.5666955858761837 0 0 0
282 1 16.34282951232573 20.06364485876464 3.4844211592722956 0 0 0
287 1 19.661459194150126 17.621310008797423 4.594760642340868 0 0 0
145 1 21.487323551319427 21.5356284047906 3.2444029327494674 -1 -1 0
124 1 21.567643933957697 19.910022573556162 1.4066887858495154 -1 0 0
265 1 21.531516298440305 17.875175544849178 3.1624533122037577 -1 0 0
285 1 18.215775531651744 17.229655983527927 2.728312671831335 0 0 0
143 1 19.90799136904773 17.878894295354222 1.3983697163459294 0 0 0
144 1 18.039741924143513 19.635465433571547 1.6678702069085019 0 0 0
286 1 19.686000456996418 19.50443339149625 3.0907131740811304 0 0 0
268 1 21.44821113683782 19.786882125713802 4.776919624600159 -1 0 0
141 1 17.875324355313644 17.90763077423754 -0.07170891173187 0 0 0
148 1 -0.11590675056164912 1.7125816394253435 5.339160063769208 0 0 0
171 1 1.4171284465613807 3.3985196907769817 5.380542993345751 0 0 0
152 1 3.0523619257759536 1.241775838224744 5.3569406086858935 0 0 0
290 1 1.2172278223436177 1.0345446375808647 7.401275963659303 0 0 0
296 1 2.8516219632303597 1.2221519666148337 9.18907441967893 0 0 0
315 1 1.551266981721284 3.444342108996854 8.773849528908073 0 0 0
317 1 3.179592054013969 3.2409593580375566 7.079017399507854 0 0 0
313 1 -0.15709066451545084 3.029537445667701 7.0593243721554275 0 0 0
461 1 3.029799438482069 3.3897200084203583 10.627212116014244 0 0 0
156 1 7.035932027378302 1.224071143450382 5.2111378999897955 0 0 0
441 1 6.8610108381518495 0.06806545825415605 10.413153940842925 0 0 0
294 1 5.063678461841891 1.4416738649479572 6.806129875429786 0 0 0
300 1 6.850595886589819 1.4678208986110521 8.506925343700635 0 0 0
319 1 5.2253807753105 3.5828212852564945 8.439083544215602 0 0 0
321 1 6.977179487079081 3.2711050808736193 6.764332035101055 0 0 0
151 1 5.259095872969811 -0.21812052849747943 5.343134857556942 0 0 0
465 1 6.951461384751636 3.5981568430613113 10.30447079755607 0 0 0
438 1 5.004276952052436 2.012673567564159 10.338384769249966 0 0 0
303 1 12.673828847646087 -0.06435631137697584 8.956595847795086 0 0 0
159 1 12.566418566461191 -0.216747996719441 5.245733856844106 0 0 0
183 1 12.258919817437876 3.328278324143996 5.152899138273701 0 0 0
299 1 8.782320528890255 -0.06948823793008785 8.857593383780495 0 0 0
298 1 8.730348905813681 1.2323995534305832 6.877336539023889 0 0 0
323 1 8.80858655086914 3.318642161417064 8.985443928664047 0 0 0
304 1 10.465343830786631 1.3433695354304593 8.934640831396848 0 0 0
325 1 10.156692950670797 2.9748455629633597 7.200195785026406 0 0 0
302 1 12.315670086433455 1.6024441795252082 6.852034768643962 0 0 0
327 1 12.066431216697644 3.152500315479578 8.729948947554155 0 0 0
301 1 10.743854648467869 -0.13538822990370392 7.2281234361648625 0 0 0
442 1 8.7326081824951 1.6448172795870053 10.401514752495071 0 0 0
446 1 12.05955959041522 1.5810437136590356 10.356706243601266 0 0 0
164 1 14.55652247684033 1.6667409588669424 5.3408981313746136 0 0 0
305 1 14.506461602798298 -0.31776395742863806 6.814168748208519 0 0 0
450 1 16.015561538371138 1.4878516990530575 10.479753787689424 0 0 0
307 1 16.475486169656875 -0.2482785240020391 8.637151613049559 0 0 0
306 1 16.299175878311907 1.6935663875883158 7.009122706308142 0 0 0
308 1 14.20241179802837 1.4523609682742764 8.41781260606714 0 0 0
329 1 14.408394053418679 3.25899576479218 7.246148758736352 0 0 0
331 1 16.26004771026838 3.2574009643355186 9.016463044775328 0 0 0
163 1 16.177882281581752 -0.23474115050358718 5.313697405232518 0 0 0
473 1 14.185523284909076 3.2032730241204694 10.076461397432336 0 0 0
292 1 21.425463035847528 1.3169203684904391 9.189230582053916 -1 0 0
289 1 21.37582201642233 -0.2962292119699086 6.707220114663581 -1 0 0
191 1 19.730028822852454 3.324561384681664 5.283573305214349 0 0 0
168 1 18.048870944616823 1.5314536544908255 5.250888343679942 0 0 0
310 1 19.813637557750226 1.6366930237308959 7.13989428022985 0 0 0
312 1 18.361818988022144 1.4103634660984299 8.750113181256813 0 0 0
333 1 18.090072690640113 3.2884650181775403 7.149076888666247 0 0 0
335 1 19.67500603881703 3.140680439003412 8.959081386649903 0 0 0
457 1 21.51698152205786 3.222849401133534 10.507872256090831 -1 0 0
176 1 3.2814851454600173 5.089419605295396 5.366897643697868 0 0 0
314 1 1.4331346376764886 5.294698114806439 6.981204059945813 0 0 0
339 1 1.3613694156826421 7.011877056502409 8.539467577939318 0 0 0
341 1 3.3096998486190934 6.832924064270499 6.941568251295336 0 0 0
320 1 3.1958986489974395 5.346104193155696 8.607548877293734 0 0 0
458 1 1.5140634808543465 5.239495426282508 10.397879881267281 0 0 0
199 1 5.151558720033702 6.871987125372666 5.53787714915292 0 0 0
204 1 7.027079638663006 8.365000101734433 5.344343102791065 0 0 0
318 1 5.405879569728813 5.12152573743353 6.993487688938101 0 0 0
324 1 7.095956214480189 5.296570269851421 8.707546348429865 0 0 0
343 1 5.007758409762736 6.884601112518998 8.720033357588475 0 0 0
345 1 7.091959221843732 6.868260360439862 6.962702458002008 0 0 0
490 1 8.397730516208664 8.40508428646976 10.445593831268294 0 0 0
462 1 5.014199599350491 4.992350728777426 10.380359525071158 0 0 0
184 1 10.618333923287075 4.696448514270063 5.476127432596556 0 0 0
493 1 10.709930399109625 7.087271233888414 10.276093235173342 0 0 0
322 1 8.701028235394274 5.386295143966243 6.824303314236326 0 0 0
347 1 8.67866368321721 7.018041372433651 8.661194041643563 0 0 0
328 1 10.65618565731336 5.220309810106778 8.611287394766563 0 0 0
349 1 10.709926367139294 6.858135757728359 7.063785270719572 0 0 0
326 1 12.583941646839301 4.991475138362572 7.129330035889963 0 0 0
351 1 12.45901742425912 6.887318219664202 8.780928843516767 0 0 0
350 1 12.656950218221887 8.364123531542106 7.1314188118066975 0 0 0
466 1 8.921767255621958 5.357883931416049 10.25759006573045 0 0 0
470 1 12.52672367614145 5.0545884554254545 10.173774122819967 0 0 0
188 1 14.59355806029087 5.200667955597737 5.771215584618848 0 0 0
497 1 14.286365960225874 6.930551983950146 10.510531901398322 0 0 0
330 1 16.51745987552819 5.102823077728802 7.159064407727284 0 0 0
332 1 14.482381649667152 5.435775232408016 8.501465905263005 0 0 0
353 1 14.827054465384915 7.138295646985817 7.031977714769614 0 0 0
355 1 16.47421582513119 6.945552600959802 8.878747065204632 0 0 0
316 1 21.358787333588516 5.0252579961462285 8.944499337333914 -1 0 0
337 1 21.488017926708643 7.0645220584691515 6.607452253978667 -1 0 0
336 1 18.125626218972585 5.07930962389713 9.090070106487934 0 0 0
334 1 19.696476261360594 5.317633263015966 7.036986838386423 0 0 0
357 1 18.068860842350333 7.08499123192193 7.091949504781327 0 0 0
359 1 19.73210462015676 7.140279205932483 8.782776491283931 0 0 0
481 1 21.426849452448067 7.085444009210778 10.478254387211402 -1 0 0
200 1 3.095696984349238 8.590984541499958 5.4915800237803145 0 0 0
219 1 1.397314201702403 10.81473989865604 5.4541619729880795 0 0 0
224 1 3.4022623390099898 12.803404789398817 5.216401412793382 0 0 0
338 1 1.4295888229125104 8.788527080799282 6.991268622150521 0 0 0
363 1 1.406427008606033 10.603539852712965 8.57340215493087 0 0 0
365 1 3.3057038537511545 10.570068358943173 7.129717693587766 0 0 0
344 1 3.3247676647778226 8.57813018563755 8.879302290670719 0 0 0
368 1 3.8563562592227614 12.409665450094044 8.447505721090458 0 0 0
362 1 1.4792292402089737 12.508394506280816 7.132357495298941 0 0 0
364 1 -0.18422105961671775 12.399918832201362 8.617784521762905 0 0 0
509 1 3.278185893297754 11.060664722991723 10.297797515001552 0 0 0
505 1 -0.14593182898614565 10.83202356280526 10.454663981573974 0 0 0
223 1 5.357293044003345 9.995019411832512 5.174187685455696 0 0 0
228 1 7.023484660593281 12.307673204800782 5.176121514389636 0 0 0
348 1 6.890524067240366 8.55762369195733 8.828507232426178 0 0 0
342 1 4.872814575764018 8.608083125148157 7.2516028655236715 0 0 0
367 1 5.648581300288235 10.776069639641143 8.933000074513904 0 0 0
369 1 7.05864884122133 10.197518423924445 6.99323208564165 0 0 0
366 1 5.5051660101032285 12.41836888200327 6.969751168069902 0 0 0
372 1 7.275693650972957 12.628352445607476 8.805435667719092 0 0 0
371 1 8.381483192816065 10.678834626757368 8.763948561185709 0 0 0
510 1 5.277658966215915 12.68248812876856 10.323086959768169 0 0 0
486 1 4.9532406920449885 9.145345213479736 10.430714733513689 0 0 0
231 1 12.290482264065645 10.823778624666867 5.714306101077603 0 0 0
352 1 10.849814928794647 9.007432225037675 8.60810341056202 0 0 0
208 1 10.670434861333007 8.674128551734107 5.278786828817004 0 0 0
346 1 8.664885286731364 8.696392674725436 6.949845804429124 0 0 0
373 1 10.557644696068099 10.339367037360896 7.086081128771594 0 0 0
370 1 8.786302251690907 12.462155678118249 6.771139464486517 0 0 0
376 1 10.647957826738395 12.648322131287427 8.73180137790337 0 0 0
375 1 12.398626847075574 10.884694551272819 9.131927395912804 0 0 0
374 1 12.407338461316163 12.68861543366136 6.998925738220821 0 0 0
517 1 10.206983475670956 10.882954712673557 10.342424457423924 0 0 0
494 1 12.538527302853398 8.593236565168793 10.3460463446084 0 0 0
514 1 8.736233373395926 12.41006919035942 10.546374712992169 0 0 0
236 1 14.2669951572613 12.283340271135069 5.2156730001483504 0 0 0
356 1 14.503902510115774 8.649665409608476 8.899915682573448 0 0 0
354 1 16.140581384217022 9.085950631796662 7.38539527492892 0 0 0
377 1 14.38269890689892 10.467007025516413 7.084857000873208 0 0 0
379 1 16.331074782178618 10.867751669245248 9.125239952197061 0 0 0
380 1 14.412923568958034 12.332371962561457 8.508537512803809 0 0 0
378 1 16.32239489560054 12.49416632391043 6.939837597665726 0 0 0
526 1 19.77095705991818 12.684364388396576 10.629739502358731 0 0 0
340 1 21.466161332548413 8.766503371755075 8.515955088597627 -1 0 0
361 1 21.247530812557542 10.460840544760385 6.982704525036298 -1 0 0
240 1 18.159197068602523 12.272299709114517 5.1639455926472015 0 0 0
358 1 19.44644396033285 8.820699625357431 6.784481114181018 0 0 0
360 1 17.884420963017057 8.947260627883942 9.0406147697189 0 0 0
381 1 18.000999125346873 10.451360117154605 7.3063020942712775 0 0 0
383 1 19.592371822825676 10.746669973551887 8.914537160904093 0 0 0
382 1 19.85860723642243 12.243066550177023 6.678072689578669 0 0 0
384 1 17.906324844514344 12.630216221608807 8.567678892708622 0 0 0
502 1 19.978375673583436 9.120226430903644 10.529382365686159 0 0 0
243 1 1.329209410646062 14.354475638713332 5.371548317709352 0 0 0
386 1 1.3390357569722626 16.201266301203184 6.858189572115574 0 0 0
387 1 1.537662138518911 14.41850986590521 8.994490394394603 0 0 0
392 1 3.342798792187441 16.30564587997565 8.856267988378743 0 0 0
389 1 3.4568880329807308 14.434759789332615 7.263512522115551 0 0 0
388 1 -0.3071552797671444 15.835593733516928 8.862984162672275 0 0 0
252 1 7.106471481896654 16.364357141846938 5.320121528866068 0 0 0
247 1 5.192282065526749 14.364693013603082 5.284399924851593 0 0 0
396 1 6.854869844807009 15.830496549938582 9.046547224443385 0 0 0
393 1 7.2532957605580926 14.490581790941153 6.88920672548902 0 0 0
390 1 5.429445490953741 16.23858374508861 6.858757809265483 0 0 0
391 1 5.3446663515718145 14.252792439480976 8.787435454440438 0 0 0
232 1 10.917811327742339 12.924182408814932 5.196501610203035 0 0 0
256 1 10.658283584795369 16.129131638150113 5.6848005898470895 0 0 0
541 1 10.609323004461045 14.352296583215853 10.606152924283533 0 0 0
255 1 12.702886873319239 14.548637053718444 5.198690494974978 0 0 0
394 1 8.894605114933956 16.407189299533343 6.961264650884013 0 0 0
395 1 9.077486764008318 14.55273721485697 8.664953077951344 0 0 0
400 1 10.622820562042131 16.567632611461306 8.515108554285533 0 0 0
397 1 10.82140307114645 14.443233988451711 7.16141581264061 0 0 0
399 1 12.586692814086975 14.408987651313712 8.83226736413541 0 0 0
398 1 12.630713499018077 16.213532060379634 6.932291399878406 0 0 0
538 1 8.702874109499483 16.101063206734977 10.175498954976153 0 0 0
545 1 14.242842369246867 14.08085166691468 10.457244939732451 0 0 0
259 1 15.995899343140097 14.028190029376697 5.176066358999831 0 0 0
402 1 16.458652029774697 16.091161778168242 6.711127524362116 0 0 0
401 1 14.669258120134671 14.49271199169451 6.8121924756787475 0 0 0
403 1 15.892138475694408 14.566627058571928 8.65422831543719 0 0 0
404 1 14.27488420166422 16.167491408240693 8.85546977424879 0 0 0
546 1 16.053036881295604 16.15144343737915 10.580722057131753 0 0 0
244 1 21.509956942622196 16.042322172680173 5.342057684194983 -1 0 0
406 1 19.780859256243673 16.277132816442062 6.887435255611304 0 0 0
385 1 21.543662570961168 14.32042821491367 6.804811371113177 -1 0 0
263 1 19.697865484994836 14.52413262121472 5.205430646774109 0 0 0
264 1 18.00042702916887 16.180449785042796 5.162843686160115 0 0 0
405 1 18.067230469474737 14.311089110248616 7.052763121761769 0 0 0
408 1 17.880627824354157 16.0654062568424 8.600229569977765 0 0 0
407 1 19.832096027879608 14.177841770255217 8.676105354969861 0 0 0
267 1 1.8609246860434152 17.920125737079516 5.32431958750186 0 0 0
291 1 1.3894461664730773 21.227601134274032 9.064593611783218 0 -1 0
293 1 3.4208268437595635 21.56056005451336 7.224610528801027 0 -1 0
416 1 3.093698317765288 19.71996724532353 9.116524902226788 0 0 0
147 1 1.440444606420836 21.211518297709453 5.5377502397124205 0 -1 0
409 1 -0.29366094247924224 17.92715187049486 7.00762948409534 0 0 0
413 1 3.2513197757449546 17.86477891768542 7.053652891083061 0 0 0
410 1 0.8565534008049656 19.625244819719512 6.9130515163987045 0 0 0
411 1 1.5671214203287336 18.198885761311445 8.66771737264407 0 0 0
557 1 3.196420961543414 17.82902534950052 10.58393873537548 0 0 0
295 1 4.9017645480635474 21.582985775553126 9.072306926257095 0 -1 0
297 1 6.605113948955749 21.579631419730738 6.960023552246159 0 -1 0
414 1 4.879886112098346 19.725859945013525 7.528311102726941 0 0 0
415 1 5.181391979057565 17.818202245116375 8.723694733408141 0 0 0
417 1 6.890280295044257 17.962092307344996 6.826832672350088 0 0 0
420 1 6.742307550383384 19.869297915939548 9.334883528464813 0 0 0
276 1 6.456670579058009 19.58176213161176 5.297190856611672 0 0 0
561 1 6.807629154795993 17.773348663897224 10.53884175351488 0 0 0
155 1 8.709637882671402 21.566509490457946 5.191952062691426 0 -1 0
445 1 10.624157626325623 21.333543293442936 10.518922544796393 0 -1 0
279 1 12.510108747400642 17.67213619004744 5.282401715925752 0 0 0
419 1 8.577980283946626 18.121556577798422 8.666998279856239 0 0 0
422 1 12.815068060697163 19.67865674407514 7.270536549146421 0 0 0
423 1 12.45613767775808 17.916232822828775 8.95354180839656 0 0 0
421 1 11.004510425880948 18.417101422872477 6.8510215019521 0 0 0
424 1 10.704789788999697 19.48609174623106 8.763228377869103 0 0 0
418 1 9.159961038962727 19.87851203896816 7.2025704322336175 0 0 0
275 1 8.928878312689989 18.099279555496146 5.253231560895874 0 0 0
562 1 8.760390360281129 19.59353882431831 10.479931523157552 0 0 0
566 1 12.623398004350191 19.956235940443023 10.457548008754852 0 0 0
284 1 14.532132196065227 19.80749560015157 5.345215684807557 0 0 0
428 1 14.551939836749728 19.670259365524707 8.870027391112489 0 0 0
426 1 16.235530309503453 19.759583516345344 7.015442571678434 0 0 0
425 1 14.403936261890196 17.842229291411925 7.108991663206633 0 0 0
427 1 16.37169725984267 17.81978689953688 8.764894934503864 0 0 0
569 1 14.523206667418986 18.073424915073268 10.63152023007541 0 0 0
570 1 16.068947767120882 19.70544372293127 10.62213288922797 0 0 0
432 1 18.124563230756294 19.90601123071921 9.011512184559443 0 0 0
429 1 17.96954968211959 18.097949018465393 7.062096007645905 0 0 0
430 1 20.126406891576785 19.599155963803177 6.933263408920516 0 0 0
431 1 19.561630370074127 17.834328070198637 9.019580296265366 0 0 0
288 1 18.2327507331758 19.790861447799358 5.334369651934277 0 0 0
309 1 18.192542560228965 21.47455937384492 7.016781409637937 0 -1 0
311 1 20.070042871129125 21.32829633620922 8.747145532017036 0 -1 0
412 1 21.327290822819123 19.31811412872033 9.28264405352636 -1 0 0
459 1 1.2191186477148663 3.6876469339837543 12.473031297622066 0 0 0
578 1 1.7318707718743833 1.5104058499577315 14.372037527051278 0 0 0
605 1 3.455106548377605 3.170401125747147 14.128555613826274 0 0 0
440 1 3.5841418643205025 1.432587694767214 12.485570875922912 0 0 0
581 1 3.503805170181171 0.09395645617333676 14.533446393204407 0 0 0
601 1 -0.1339149620279585 3.4674311327709657 14.540675088451268 0 0 0
436 1 -0.19869972279253784 1.2446747942673393 12.738950383344491 0 0 0
577 1 0.005892402601604951 -0.30760450391034766 14.878769477309312 0 0 0