LAMMPS data file via write_data, version 29 Oct 2020, timestep = 300000

864 atoms
1 atom types

-0.2382904348446928 21.50229043484425 xlo xhi
-0.2382904348446928 21.50229043484425 ylo yhi
-0.2382904348446928 21.50229043484425 zlo zhi

Masses

1 58.933

Atoms # atomic

8 1 3.542637863817395 1.44683562380154 1.6371113789269003 0 0 0
27 1 1.507910298789939 3.341602153537949 1.4780947537712539 0 0 0
146 1 1.794457945906211 1.7444950849312642 3.2664855743182075 0 0 0
173 1 3.6800645727616526 3.523734321596551 3.2374493177120574 0 0 0
4 1 -0.116941383535247 1.5137251835173993 1.675490126507725 0 0 0
489 1 6.654993873570629 7.2375822182593055 10.505326149609767 0 0 0
152 1 3.7025966424477774 1.5279820752033892 5.1616536488576275 0 0 0
147 1 1.8473065904743238 21.43400134050766 5.401975640589503 0 -1 0
534 1 4.955432530093701 15.915416143854753 10.593446066445656 0 0 0
12 1 6.904362748449882 1.3769629168458233 1.8117685615517045 0 0 0
31 1 5.58097412536191 3.0822904102574484 1.59875517196615 0 0 0
150 1 5.294451466494663 1.621200375992109 3.4625172634746026 0 0 0
177 1 7.297842377128561 3.1042698232558172 3.3557160826566403 0 0 0
153 1 7.048178167989625 21.432996754329526 3.490717086067141 0 -1 0
7 1 5.197335760499339 21.377528673761226 1.7525407938290096 0 -1 0
154 1 9.16683216202757 1.6211835338084928 3.4306881910138984 0 0 0
35 1 8.908563932494681 3.2279570638620005 1.6410533323358014 0 0 0
16 1 10.687909819342076 1.5358406799459594 1.5511549011417225 0 0 0
181 1 10.814871102462465 3.489814904510604 3.2498271449128784 0 0 0
158 1 12.600117743786111 1.6405681305420892 3.0276820945542453 0 0 0
39 1 12.549657935396715 3.2863099537740825 1.3772495037852437 0 0 0
160 1 10.722793373766747 1.8756511585904532 5.206269721611537 0 0 0
141 1 18.28016778532947 17.88487687587269 -0.07417401183400921 0 0 0
37 1 10.449963522044198 3.3054985198664495 -0.09331604209500033 0 0 0
11 1 8.801682723645138 21.4165565245129 1.7408400699005893 0 -1 0
159 1 12.273106530085906 -0.17607684557935632 5.225535386597457 0 0 0
2 1 1.897516068514515 1.625376988100867 -0.21457311952130992 0 0 0
309 1 17.868791119257303 21.340791913388642 7.152222982475367 0 -1 0
20 1 14.557002352815642 1.4987179901074505 1.6258217232982624 0 0 0
43 1 16.361303117133254 3.3941614709323447 1.6784492717092758 0 0 0
162 1 16.03922855900633 1.714610975380072 3.320741810482501 0 0 0
185 1 14.45811150382893 3.692259987356868 3.103248571812429 0 0 0
164 1 14.236020339871228 1.857622500085827 4.919116040677364 0 0 0
61 1 10.709554411291158 7.251037029702525 0.031178135305972743 0 0 0
169 1 21.262136617972853 3.333844913296671 3.266525672376336 -1 0 0
24 1 17.83393505394634 1.3617768650393782 1.5512129502331402 0 0 0
47 1 19.749038005611382 3.3360997334863023 1.7081697302475305 0 0 0
166 1 19.679687652306445 1.3517836577869597 3.273398549054976 0 0 0
189 1 17.962661793767463 3.1784322062701666 3.5575081007942755 0 0 0
168 1 17.99101051439739 1.4960736721793557 5.278607121279681 0 0 0
165 1 17.714238160611536 -0.20483045443736958 3.595920366630272 0 0 0
412 1 21.444492005520903 19.594309647236223 8.97013722851108 -1 0 0
191 1 19.879754561027337 3.1176688140384012 4.99555691637086 0 0 0
32 1 3.4647515921010217 5.201119401664874 1.553803862603486 0 0 0
51 1 1.70653997779704 7.023480541539677 1.558355243188993 0 0 0
170 1 1.4715049279488104 4.93337599638903 3.236613736090236 0 0 0
197 1 3.490519741279343 7.141895775231708 3.503336551716206 0 0 0
176 1 3.218987807666553 4.834737908333906 5.072600927053789 0 0 0
196 1 21.200197177335536 8.732529221671026 5.089517159555652 -1 0 0
429 1 17.87309962401186 18.22451282051442 6.660036853052653 0 0 0
36 1 6.736767759092171 5.193961773176372 1.5195384218488104 0 0 0
55 1 5.049304064084826 7.003055382241897 1.6008437164342162 0 0 0
174 1 5.51098959541415 5.179954808614554 3.653833712493917 0 0 0
201 1 6.986269847250571 7.138653342766323 3.382377032544274 0 0 0
178 1 8.499227427308984 5.2004455720703735 3.072309496944701 0 0 0
59 1 8.704347469721005 7.12548166476349 1.7022232054776814 0 0 0
40 1 10.623379021410964 5.481264064082156 1.6608850894612983 0 0 0
205 1 10.375319641041012 6.7877523447905785 3.6261924318735987 0 0 0
63 1 12.621325289116646 6.9082426746041685 1.7038554020462024 0 0 0
182 1 12.464584647287154 5.068027328262131 3.3664163872645223 0 0 0
184 1 10.779210494423298 5.154868554893315 5.154257139611821 0 0 0
206 1 12.35591152315374 9.256474248312724 3.143465939660881 0 0 0
97 1 -0.12646448956386153 14.122155422925085 -0.1632975795525588 0 0 0
44 1 14.443856802873311 5.086633575775497 1.3124009127695995 0 0 0
67 1 15.957934442304513 6.787157184308596 1.4794146735840292 0 0 0
186 1 16.41955775433451 5.18646402554332 3.1782548701316866 0 0 0
209 1 14.408769931161212 6.936490789251195 3.5225315136356063 0 0 0
211 1 16.232309283418775 6.803574051189327 5.129610518587898 0 0 0
65 1 14.06754260078778 7.061682950420178 -0.2341209278941602 0 0 0
28 1 -0.20709403963969208 4.958717139897849 1.6203648130236308 0 0 0
193 1 21.361371749550987 7.0237061388459265 3.1467222394717833 -1 0 0
48 1 18.03343184032786 5.189310507929601 1.5793866183565204 0 0 0
71 1 19.757047848301266 6.919360930440137 1.2979778533689124 0 0 0
190 1 19.574176998484134 5.224905437398637 3.2690393396378523 0 0 0
213 1 17.977273066640365 6.958140908987233 3.3571668884176673 0 0 0
194 1 1.5637357967216234 8.699237021539734 3.2803595537019743 0 0 0
56 1 3.581458510438258 9.00541275781545 1.5600794273109055 0 0 0
75 1 1.7133370484722907 10.517062598496556 1.7579219289391455 0 0 0
221 1 3.317904718058042 10.516532235972624 3.6496706592421533 0 0 0
80 1 3.7059377020158752 12.409803492738861 1.7374309289434848 0 0 0
218 1 1.8192635343760832 12.43547568422266 3.506900154108688 0 0 0
224 1 3.426649885755985 12.419073942648335 5.512678150380059 0 0 0
430 1 19.762027210122092 19.56744305554117 6.822871610777543 0 0 0
219 1 1.4378245414344724 10.654259858911884 5.3328285165679725 0 0 0
118 1 19.70097312439042 16.122113018507015 0.10975518841714033 0 0 0
60 1 7.062870790435493 9.225219050664927 1.6886882325426666 0 0 0
198 1 5.313141442122657 8.975507654075914 3.3986701887421646 0 0 0
79 1 5.093672233942883 10.846501980186853 1.5092475720604135 0 0 0
225 1 6.91645020570739 10.617816928431468 3.942842520994313 0 0 0
84 1 6.989371331663096 12.445667237710294 2.0238683292459725 0 0 0
223 1 5.148147992729639 10.608634857931998 5.77646614923608 0 0 0
222 1 5.010878310750825 12.340519151122727 3.616495596484719 0 0 0
18 1 16.154643980705767 1.2694208873066426 -0.15341057931348032 0 0 0
34 1 8.82597232964671 5.3014035735676055 -0.1181460680890415 0 0 0
78 1 5.489022431098257 12.787863512851658 -0.0031411909039146535 0 0 0
202 1 8.519528380190938 8.820107009331988 3.6671084536631575 0 0 0
83 1 8.91981509455359 10.664243182758447 1.537126532857719 0 0 0
64 1 10.495446040016287 8.712537596648609 1.9363040838789787 0 0 0
229 1 10.414982590106897 10.751569645016264 3.3143863117758636 0 0 0
87 1 12.138126900225668 11.089895468629825 1.4708664548905939 0 0 0
226 1 8.648426085118027 12.192310617183372 3.6796128547975377 0 0 0
88 1 10.40758130929214 12.791048524721162 1.500090088847606 0 0 0
227 1 8.722001827295754 10.598988475191097 5.6489940062042185 0 0 0
230 1 11.95318741246925 12.666505771927064 3.335721677099291 0 0 0
537 1 7.047467697087918 14.48418047291291 10.588833808667497 0 0 0
208 1 10.743659551712067 8.862690722462048 4.7329606682431455 0 0 0
109 1 10.545818759391048 14.290667347377235 -0.10742377124311928 0 0 0
68 1 14.34660316332251 9.090430227501352 1.9901161381568633 0 0 0
210 1 16.33058082586897 8.564149625975533 3.349613838552611 0 0 0
91 1 16.04073509262544 10.610329791060684 1.680237348300322 0 0 0
233 1 13.83073094108855 10.885675562488181 3.3048182727239834 0 0 0
92 1 14.227116130974634 12.52293878104388 1.677033814763995 0 0 0
234 1 15.920843154846164 12.674027774495277 3.406222457211203 0 0 0
212 1 14.318966197738195 8.686060454442169 4.8320819021146075 0 0 0
431 1 19.915187076045502 17.92038983937465 8.486315231500498 0 0 0
76 1 0.029525232832341042 12.227686862898986 1.3704918434797349 0 0 0
52 1 -0.06979574239490238 8.932428746107055 1.5147815831125446 0 0 0
217 1 21.30395220717159 10.94795162800567 3.564285470681753 -1 0 0
72 1 18.029130018880487 8.7530207132386 1.5351782543122436 0 0 0
214 1 19.879185749503723 8.712340679742967 3.242185532408039 0 0 0
95 1 19.792593994618016 10.617246105911075 1.7450317052016622 0 0 0
237 1 17.77577714297265 10.823216084214014 3.255525237087494 0 0 0
96 1 17.724659785359304 12.38367662023368 1.6283333063949372 0 0 0
238 1 19.532674749951283 12.539385233116032 3.565248709288322 0 0 0
216 1 17.875189016457348 8.532417277787983 5.14507735978466 0 0 0
240 1 17.808958613596076 12.49160202490096 5.262165355915778 0 0 0
99 1 2.034429880925176 14.174379836883888 1.5539280802634479 0 0 0
104 1 3.674594500950494 16.011725608318272 1.6166589609553117 0 0 0
242 1 1.4431628882302348 15.743900002949692 3.320888991489902 0 0 0
245 1 3.3657855732489637 14.22585022120284 3.560171208184205 0 0 0
100 1 -0.10306716046860503 16.054574585956665 1.4122040968864542 0 0 0
244 1 21.17127543935766 16.32463157703398 5.356562733260038 -1 0 0
33 1 7.382161841953322 3.478127134612668 -0.14579952396571738 0 0 0
103 1 5.4600917964911435 14.093004475196828 1.9534443735531877 0 0 0
108 1 6.644733694903499 16.025948947330477 1.6718029956147595 0 0 0
246 1 5.276150432092732 16.106671010590855 3.4928003397367497 0 0 0
249 1 7.138430788981915 14.220226367567136 3.696159853306621 0 0 0
553 1 0.18681841565859336 17.658586992984155 10.352072403526032 0 0 0
107 1 8.621159242477399 14.28636372468964 1.6735239142774188 0 0 0
250 1 8.72584518641934 16.34589203128874 3.441420066248166 0 0 0
112 1 10.544437563817263 15.847107099222416 1.6255680651672115 0 0 0
253 1 10.280704262634188 14.172733457298676 3.725053029623079 0 0 0
254 1 12.3623749927344 16.37950594209362 3.6404403918856305 0 0 0
255 1 12.674545847293297 14.575705322528362 5.242237695055676 0 0 0
111 1 12.545821290595176 14.501401016931393 1.5000590251872763 0 0 0
138 1 16.331299710759833 19.993260360378752 -0.18788119658737523 0 0 0
514 1 8.910557867432251 12.549431779007623 10.503121809101549 0 0 0
115 1 16.23327984015582 14.401701494256606 1.2178432434444344 0 0 0
116 1 14.373487984628062 16.623909543242693 1.5924893916075311 0 0 0
257 1 14.324341362805121 14.405994559337826 3.184509659046681 0 0 0
258 1 15.943285142519962 16.03228475203444 3.2143555093166936 0 0 0
420 1 6.940630907213404 19.66644825186271 8.66185327938351 0 0 0
297 1 7.115120823983738 21.35439498177162 6.926741671362969 0 -1 0
259 1 16.201217377337738 14.333419466374108 5.342796018250322 0 0 0
241 1 21.435920595826488 14.096166599308047 3.443455245958648 -1 0 0
119 1 19.9652518046745 14.070491617521306 1.8261067427741975 0 0 0
120 1 17.93325982679058 15.983390057715926 1.7983864239149363 0 0 0
261 1 17.688884734461634 14.04511830221528 3.413976266720808 0 0 0
262 1 19.975835493712584 16.033793533720555 3.2235407398807054 0 0 0
263 1 19.505315222343274 14.576146681269456 5.0499912388509625 0 0 0
432 1 17.787660086283637 19.526406129966 8.670404602302781 0 0 0
3 1 1.6985753068897422 -0.16098839657754893 1.333126244583351 0 0 0
268 1 0.17268715316744288 19.739216744705182 5.1810064858888785 0 0 0
149 1 3.299257962608292 -0.08577010278832725 3.2308921607496637 0 0 0
123 1 1.6061074244940274 17.78839882852134 1.5513194490389313 0 0 0
128 1 3.4930017343504938 19.748792538159027 1.4301304896796203 0 0 0
266 1 1.9110142138372006 19.692868939280512 3.3487527918067985 0 0 0
269 1 3.4380156523119276 17.75847787970991 3.4513028101486225 0 0 0
265 1 -0.12057403206280265 17.82576929732813 3.4012525506516518 0 0 0
127 1 5.055762845805603 18.009919751318524 1.6229599349067478 0 0 0
132 1 6.998097303160861 19.7858816759676 1.3229989691247903 0 0 0
270 1 5.186742057870027 19.753476699636963 3.248376081175956 0 0 0
273 1 6.98891373097912 17.863837187422032 3.139225030282578 0 0 0
276 1 6.777250543797154 19.55083627894281 5.096162957263146 0 0 0
415 1 4.9863267903926625 17.73601026748213 8.833895337304748 0 0 0
279 1 12.349623697170399 17.726213175131953 5.4018392534825574 0 0 0
157 1 10.77580160224446 -0.23381136525683743 3.324547773083058 0 0 0
155 1 8.902483574035225 21.36691866810519 4.9094106340376635 0 -1 0
311 1 19.581180768630613 21.370314239064108 8.730933182871942 0 -1 0
15 1 12.61069660720921 -0.22906965618323127 1.4343951104726151 0 0 0
275 1 8.79066008854402 18.19854674134596 5.357365844329069 0 0 0
274 1 8.876944591313212 19.763575458168287 3.3756386201931394 0 0 0
131 1 8.709181435235745 17.977986186105433 1.5318729709664507 0 0 0
136 1 10.691986942140392 19.918758306265687 1.7470742532015613 0 0 0
277 1 10.581285137427837 18.08521008951656 3.3613707917263094 0 0 0
135 1 12.36618645402218 17.923090785948375 1.9197108751444314 0 0 0
278 1 12.425126346617814 19.680401773080895 3.456962088411778 0 0 0
280 1 10.623611148385313 19.756380546258633 5.165440446582505 0 0 0
510 1 5.0090219701762 12.385915371172734 10.625217442396835 0 0 0
283 1 16.052401236159053 17.93119315296787 5.023217898690988 0 0 0
19 1 16.159970466167053 21.479243670863053 1.6414975891871413 0 -1 0
161 1 14.463883131495678 -0.18287944043030013 3.6114529703575156 0 0 0
139 1 16.39330488030378 17.818222741846526 1.576306165218255 0 0 0
140 1 14.291868892520053 19.906118768219205 1.5198155806451 0 0 0
281 1 14.173185128978828 18.23653066327859 3.532612327952378 0 0 0
282 1 15.97838218046368 19.881050258454735 3.431125106752133 0 0 0
414 1 5.2905669800922865 19.52798409972054 7.175735812404476 0 0 0
287 1 19.974456468912834 18.207515956353507 5.044126477040092 0 0 0
145 1 0.013888755275993203 21.288172262802817 3.0707990178507854 0 -1 0
124 1 -0.01029972926069736 19.688961690995598 1.3844789877864097 0 0 0
23 1 19.911568225643443 21.492554778828257 1.3180568458015633 0 -1 0
288 1 17.98055328389888 19.86029993559106 4.901804733507808 0 0 0
143 1 20.078381419691915 17.903688238622046 1.6887648798514214 0 0 0
144 1 17.985583685136447 19.82310369561875 1.6764546241183307 0 0 0
285 1 18.237790652903563 17.940285626970944 3.3504993031109866 0 0 0
286 1 19.72784304802129 19.984482316338585 3.4287930151966233 0 0 0
167 1 19.82823148171287 -0.08992936941432189 5.23563890515743 0 0 0
411 1 1.5131873960339681 17.747295817127277 8.419400137843875 0 0 0
171 1 1.3867528849999613 3.1176144526290788 4.982781103920307 0 0 0
290 1 1.3761303599381565 1.6278252841769743 6.615392354090862 0 0 0
296 1 3.5900769345729975 1.6433765595473362 8.537174971135805 0 0 0
315 1 1.3331578487915818 3.050629518375359 8.818138492710938 0 0 0
317 1 3.297254151990827 3.199383470105569 6.851583117783946 0 0 0
293 1 3.531878909867399 21.38843722740133 7.058804810127013 0 -1 0
313 1 21.219031468206136 3.295128772755562 6.992187196645466 -1 0 0
291 1 1.5495243578000115 -0.04876974231164058 8.773759266078473 0 0 0
284 1 14.247395265636767 20.189135103811527 5.5213168805301605 0 0 0
175 1 5.253064711254216 3.522626713926738 5.179188069446001 0 0 0
151 1 5.048151641019191 21.317600442908468 5.008370213701251 0 -1 0
416 1 3.224903491753964 19.673641122106396 8.67686171398075 0 0 0
156 1 7.2061577055749995 1.4677334122385837 4.882516605092647 0 0 0
294 1 5.45726094237946 1.6126479522219763 6.850400057154951 0 0 0
300 1 7.130146718038602 1.3837078540291954 8.782984540181687 0 0 0
319 1 5.030043198951956 3.4808906041504506 8.44505074682794 0 0 0
321 1 6.968146271342755 3.443656418712517 7.056619405660317 0 0 0
163 1 16.1107595730143 21.460398610948623 5.2493103280658024 0 -1 0
410 1 1.759976974772066 19.694158380127227 6.926706199782953 0 0 0
183 1 12.543214984212154 3.4096499334228736 5.564590778151503 0 0 0
179 1 8.904291671076 3.7658151399439346 5.198769237206735 0 0 0
303 1 12.177467184429585 -0.1521982784887878 8.5842984105624 0 0 0
298 1 8.441932413607487 1.5119069177310511 6.822342891983037 0 0 0
323 1 8.766095318136411 3.1901349742370777 8.717558687907909 0 0 0
304 1 10.508441903655195 1.6198431756535046 8.701959109411312 0 0 0
325 1 10.662083767960025 3.460158390723311 7.10741652970853 0 0 0
327 1 12.477857483659768 3.312295506722184 8.868447196029917 0 0 0
302 1 12.436648637057269 1.599641945631521 7.160149919116649 0 0 0
299 1 8.860894788975758 -0.05942029970790774 8.741780172064846 0 0 0
187 1 16.085966721584672 3.2612385185466337 5.186984691991545 0 0 0
305 1 14.288656935722328 -0.03886498877319672 7.283662069545166 0 0 0
307 1 15.948260687867894 21.44816988091836 8.728245236507842 0 -1 0
306 1 16.23139011551959 1.4468366979910336 6.804703012280832 0 0 0
308 1 14.317686026741194 1.5065404648408864 8.969213307915181 0 0 0
329 1 14.329372342626584 3.543684607522689 7.279269650789336 0 0 0
331 1 16.026115631097497 3.303807083624878 8.492997866914207 0 0 0
289 1 -0.018676729597307568 21.386861946842416 6.97806417015737 0 -1 0
425 1 14.159710338757089 18.128917366336086 7.105281238518375 0 0 0
148 1 -0.08966084895868554 1.2302995187595032 4.577014086858322 0 0 0
292 1 21.380194109495623 1.5397502147377298 8.776368860676213 -1 0 0
310 1 19.89479872405745 1.366351679805856 7.0285354045026125 0 0 0
312 1 18.05164090083866 1.7417251037351806 8.910328107896618 0 0 0
333 1 18.066251464639763 3.252147496375893 7.228156381821192 0 0 0
335 1 19.962790258602357 3.3379968438434306 9.116708104304896 0 0 0
462 1 5.409880316673676 5.193690946323389 10.469535275017154 0 0 0
195 1 1.652598092362434 6.577618114487895 5.161369725447911 0 0 0
172 1 21.350664047387674 5.418142664495239 5.110007281453286 -1 0 0
314 1 1.3832417668935808 5.326604535271677 7.280586358455783 0 0 0
320 1 3.294682457512012 5.167459798539926 9.028765064608548 0 0 0
339 1 1.4445935488019745 6.941961324112442 9.209402065628195 0 0 0
341 1 3.242300373327087 6.685928799152353 7.159488820651729 0 0 0
316 1 21.176089481494287 5.295329211666395 9.414691569822512 -1 0 0
337 1 21.135474776576444 7.070898860098002 7.0349213820406495 -1 0 0
413 1 3.305842049574945 17.656494734178604 6.981080263689614 0 0 0
295 1 5.47960369465151 21.500847788145418 8.64891334532723 0 -1 0
426 1 15.92031367821394 19.738312359761867 7.085509550784128 0 0 0
180 1 7.182854301892873 5.305507736355691 5.42444462280528 0 0 0
199 1 5.146151665822419 6.990471481027977 5.24013167449464 0 0 0
318 1 5.03753758625288 5.222359749213121 6.795452555149152 0 0 0
324 1 6.992979011953468 5.030303277185227 8.845140047699589 0 0 0
343 1 5.362005472961363 6.845999781431464 8.65183406076941 0 0 0
345 1 6.869032015191704 6.913118901306829 7.034686516135092 0 0 0
427 1 16.171107028288695 17.77990723480664 8.985116987559326 0 0 0
207 1 12.30457217076947 6.958672178474358 5.001380687155134 0 0 0
203 1 8.744930406486095 6.915414180897667 5.288257595620347 0 0 0
347 1 8.761120800778976 6.949485184374703 9.14100900788138 0 0 0
322 1 8.850574184504197 5.271822151079958 7.223997375715304 0 0 0
328 1 10.61667138172913 5.198521354291488 9.008092439502859 0 0 0
349 1 10.443797376685671 7.027233115697524 7.148296015387434 0 0 0
351 1 12.207202617888159 7.024164055903029 8.737847132901855 0 0 0
326 1 12.24161274298208 5.2091553517679205 7.12651527737396 0 0 0
428 1 14.033237100600715 19.857470078669955 8.625100094330508 0 0 0
267 1 1.372631026573468 17.614184306526372 5.106876522265899 0 0 0
188 1 14.235021085802995 5.172784672771381 5.1511508423846255 0 0 0
330 1 16.256149174943797 5.179923568426212 7.11162092380147 0 0 0
332 1 13.99935083338508 5.344706101551122 8.85047697500976 0 0 0
353 1 13.98934579784995 6.983668760276763 6.899154503527705 0 0 0
355 1 15.922547766485906 7.032470339224379 8.582487463974921 0 0 0
192 1 18.13177570576469 5.089266528927915 5.239772112331062 0 0 0
215 1 19.515459746735168 7.014287911061833 5.16062729054864 0 0 0
334 1 19.648554791569683 4.946195694718592 7.169408878878231 0 0 0
336 1 18.23384258305607 5.115355727153949 9.134368222909387 0 0 0
357 1 18.053696214474478 7.009874870177348 6.920070784187259 0 0 0
359 1 19.47611915646024 7.145767861632327 9.052137487080268 0 0 0
200 1 3.5026907372087766 8.664459972155997 5.34044022234577 0 0 0
338 1 1.4283734541236985 8.41712421662328 6.890514410993835 0 0 0
344 1 3.030971507205089 8.71409516217042 8.667209402848068 0 0 0
363 1 1.4906562549987195 10.638510547961113 8.702030747816279 0 0 0
365 1 2.8904167978227826 10.18529490646382 6.981520615844854 0 0 0
368 1 3.318013917247677 12.381074935077088 8.782957302931576 0 0 0
362 1 1.6272812239646777 12.386170266326385 6.954619310026608 0 0 0
340 1 -0.11414105113479127 8.634585815616026 8.788358625521075 0 0 0
361 1 21.311659333036513 10.571423927128901 7.085768746787877 -1 0 0
272 1 3.5094540000335885 19.552666744545817 5.002813742737054 0 0 0
409 1 -0.15525705844218707 18.077896979203704 6.921325645276082 0 0 0
228 1 6.852058288665682 12.543569680571187 5.302578010394046 0 0 0
204 1 6.901973301898131 8.67786094470391 5.189804418604519 0 0 0
348 1 6.7989862561078365 9.086148003630258 8.744930508071597 0 0 0
342 1 5.013743748276967 8.607154813309732 7.456695461409099 0 0 0
367 1 5.094444435633023 10.77050543486964 8.550942161821931 0 0 0
369 1 6.985182434357988 10.960193418264508 7.0404786898271405 0 0 0
366 1 5.084858149303798 12.622326611674136 7.054901638276298 0 0 0
372 1 6.890753640567227 12.73937895192722 9.017244162917995 0 0 0
417 1 7.0087421923617335 17.543404419478595 6.967172971790546 0 0 0
231 1 12.202227502586942 10.695192280406596 5.27791489608329 0 0 0
232 1 10.549404716330427 12.411459501456314 5.201719538565011 0 0 0
371 1 8.634788441122158 10.780469595938392 8.808979681916973 0 0 0
346 1 8.712925447149658 8.55649014744474 7.123088267849446 0 0 0
352 1 10.639215279734776 8.833607697306835 8.936825860587447 0 0 0
370 1 8.909124288425424 12.361639858980581 6.98991390396849 0 0 0
350 1 12.240737929884077 8.532298058211238 6.914740043049036 0 0 0
373 1 10.51173567955126 10.713401060569288 7.169944941301368 0 0 0
376 1 10.882652888286595 12.482689998498529 8.799325844069646 0 0 0
374 1 12.206999064213964 12.881325979793527 7.004955217219028 0 0 0
375 1 12.638354031624662 10.593538734021083 8.895259127161976 0 0 0
574 1 19.814228391748927 19.406271984592767 10.47701273673186 0 0 0
271 1 5.189929176382016 17.723680014878948 5.049976639781565 0 0 0
235 1 15.834755429890524 10.64427268442632 5.269959833963491 0 0 0
236 1 14.12123554751863 12.511440191562471 5.340596959865828 0 0 0
90 1 15.947759780489687 12.42368162242028 -0.2137084393023383 0 0 0
354 1 16.000367700763036 8.849669156489586 6.8788871218837 0 0 0
356 1 14.193380304435571 8.743164066814364 8.82826740222151 0 0 0
377 1 14.111292116527542 10.420654165508353 6.761156018450138 0 0 0
379 1 15.772450338599207 10.56001890459474 8.82907231176258 0 0 0
378 1 15.968005367015738 12.275908479524011 7.05881078973123 0 0 0
380 1 13.839875817274844 12.437902860926673 8.556641602477283 0 0 0
422 1 12.304490448521744 19.730174547784692 6.76507953249616 0 0 0
220 1 21.4388563884467 12.770130196144374 5.153311637972039 -1 0 0
364 1 21.457050541468398 12.372992052297231 8.510344705137499 -1 0 0
239 1 19.3855277327773 10.262805333982131 5.169451002045733 0 0 0
358 1 19.551266970268465 8.89039498037291 7.022341272870107 0 0 0
382 1 19.427784897078563 12.379179111764254 6.767692960268568 0 0 0
360 1 17.78206782255712 8.883652299753445 8.809340548736966 0 0 0
381 1 17.846242886240756 10.567874432458664 6.9733286244017565 0 0 0
383 1 19.3252898560417 10.865799674589152 9.026548504069604 0 0 0
384 1 17.57586181740742 12.288329662553185 8.846597345410466 0 0 0
301 1 10.617258897671645 -0.2298692690658091 6.939375549816025 0 0 0
243 1 1.444970740714477 14.525820626301837 5.299833039544198 0 0 0
248 1 3.348180312689041 16.10248324116273 5.15159697180763 0 0 0
386 1 1.3077800673947026 16.010676105789557 6.9321891889242995 0 0 0
387 1 1.4417788317333349 14.220930944021534 8.717335713989167 0 0 0
389 1 3.4929488084900884 14.545368325213381 6.817811439725389 0 0 0
392 1 3.2408485119870543 16.107668973339425 8.839352319592729 0 0 0
418 1 9.140876909551345 19.777980933495336 7.3639176012359 0 0 0
423 1 12.42455368324825 17.7448286367687 8.843311294481957 0 0 0
247 1 5.136642040269202 14.478906474762537 5.141958028189827 0 0 0
252 1 7.236946394868097 16.07896559571809 5.3183415929309446 0 0 0
396 1 6.867706196361397 16.292228487883293 9.10957829362492 0 0 0
393 1 6.847419028718226 14.6037191689461 7.184006547111434 0 0 0
390 1 5.16237933724305 16.116608170154333 6.9273011631219195 0 0 0
391 1 5.082987209050603 14.32940509568277 8.910129730117598 0 0 0
256 1 10.44078207516584 16.275200160980816 5.10481320737175 0 0 0
251 1 8.616158161680278 14.165402435657624 5.350313117557622 0 0 0
394 1 8.75494121741503 16.092612360313645 7.071463589285023 0 0 0
400 1 10.323746660112427 16.12196370771153 8.75239443366018 0 0 0
399 1 12.23221327295717 14.716788670616168 8.749112132028797 0 0 0
397 1 10.43159925091533 14.333291549545221 6.9461139873695945 0 0 0
395 1 8.959794901044496 14.182472466582869 8.718391987076796 0 0 0
398 1 12.663097101596524 16.203865679977135 7.1648588643653195 0 0 0
421 1 10.53825186813861 17.793475678341455 6.948161015422656 0 0 0
260 1 14.538168349604119 16.27596068696747 5.1654935967129125 0 0 0
401 1 14.10905889512123 14.28415101713009 7.09917790055817 0 0 0
403 1 15.960230994458179 14.15791791610895 8.780303672158142 0 0 0
404 1 14.228950758549864 16.085178465775837 8.93977348070087 0 0 0
402 1 16.06662001788972 16.257041186110538 6.975679718443329 0 0 0
424 1 10.532594305459396 19.43437300059202 9.088987334532604 0 0 0
264 1 17.819368219859285 16.275610437589826 5.37153669468932 0 0 0
385 1 21.193996664768257 14.202805135078938 7.029458215352836 -1 0 0
406 1 19.52749837890977 16.151424669857892 7.022426406147374 0 0 0
405 1 17.5332501068554 14.312443621871713 7.1167596889486076 0 0 0
407 1 19.4321595664905 14.022894874427053 8.760453558947868 0 0 0
408 1 17.75358578181505 16.09976149573215 8.752235915833513 0 0 0
388 1 -0.04507880087860658 15.85810383733945 8.746058759120798 0 0 0
419 1 8.836290425995303 17.70607460627283 9.150517027311361 0 0 0
498 1 15.820127515167428 8.751323314778743 10.613777411329052 0 0 0
117 1 18.13761758446747 14.4823899001459 0.00018498718291562466 0 0 0
485 1 3.5837402546139545 7.247151332808193 10.507999918921168 0 0 0
461 1 3.6264730686993722 3.259069782032445 10.27072018356664 0 0 0
62 1 12.167908238694276 9.001095817646881 0.10992408821476601 0 0 0
474 1 16.009040263799204 4.937768569733243 10.195064767824979 0 0 0
458 1 1.4424128530944336 5.136005250197882 10.536450161961463 0 0 0
433 1 21.249725484123644 21.432438555815782 10.466436867550806 -1 -1 0
450 1 16.254924531224255 1.2072754360301607 10.34401973900125 0 0 0
558 1 4.966274494371753 19.448361910401996 10.56097959319501 0 0 0
438 1 5.2421761529173745 1.4735668689462542 10.454006508771183 0 0 0
529 1 21.001012071569715 13.576562787325726 10.204536570850092 -1 0 0
502 1 19.46776021139256 9.00850864578294 10.63076057570454 0 0 0
9 1 7.027585388660952 -0.037795807087736194 -0.09336583422281125 0 0 0
93 1 18.067937004653572 10.759733095054203 -0.1868377067093714 0 0 0
453 1 17.863326784331047 21.350068033759605 10.259464267414648 0 -1 0
482 1 1.5952246251136046 8.68690029116524 10.510365239532636 0 0 0
569 1 14.25807149095502 17.812722144066637 10.4429425003965 0 0 0
550 1 19.74754524855845 16.18460017776581 10.36463644941714 0 0 0
497 1 14.13777645339745 7.022494255749382 10.376462816991603 0 0 0
437 1 3.5097815910381973 21.413455880517237 10.131744871653938 0 -1 0
506 1 1.2288189162440588 12.493624472871245 10.382697968494888 0 0 0
446 1 12.426959098955539 1.6421983787892618 10.474991148756834 0 0 0
137 1 13.973910377141575 17.95436221018623 -0.22015649811035612 0 0 0
13 1 10.288214370192758 21.346231851068257 -0.05367030875217457 0 -1 0
6 1 5.207857874318971 1.4685985038472924 -0.17396300338405313 0 0 0
549 1 17.78044628889343 14.220584252509127 10.561914741181436 0 0 0
66 1 15.864592333101967 8.598545810218253 -0.18368542734413798 0 0 0
29 1 3.359998275400956 3.145022798062635 -0.22620066225080324 0 0 0
125 1 3.2887084409446983 17.818670424949165 -0.14526403964480572 0 0 0
41 1 14.306859614823551 3.105922026051725 -0.19288557650042998 0 0 0
486 1 4.80602114057201 9.289352332006091 10.467463285589652 0 0 0
566 1 12.559162836260903 19.87396987363486 10.389746079433328 0 0 0
45 1 17.912004581355095 3.098041718346141 -0.03333450385683784 0 0 0
557 1 2.9475037888202564 17.540099375877638 10.486650360568206 0 0 0
54 1 5.295300348974324 8.920090831909421 -0.11345764562765193 0 0 0
89 1 14.062897987888196 10.621805485431663 -0.16280462571849402 0 0 0
442 1 9.10899903423534 1.7378852252763726 10.595465477964638 0 0 0
106 1 8.866674409093404 16.231682322474935 0.1022101606137758 0 0 0
74 1 2.028061560392216 12.548516945487652 -0.2233934129431568 0 0 0
517 1 10.659942843250796 10.86661731383213 10.620555893445461 0 0 0
521 1 14.491735338559883 10.493968716438111 10.564496609072368 0 0 0
441 1 6.875930061050692 21.298155658881054 10.322519401233572 0 -1 0
69 1 18.016272073754873 6.895163246580249 -0.06835874773213318 0 0 0
562 1 8.803146228171187 19.787656590463143 10.614598802864851 0 0 0
101 1 3.8906359157910444 14.559039554628152 0.02330423057234693 0 0 0
10 1 8.846483532502043 1.5498612326027297 0.07457139848083799 0 0 0
570 1 15.955032384767424 19.797160943198897 10.335402708670292 0 0 0
98 1 1.7541605095565387 15.758261701036943 -0.15968812046664688 0 0 0
58 1 8.967126516412545 9.038663347152221 -0.17780272136150632 0 0 0
445 1 10.581151252765252 -0.019949012039885083 10.631792103318272 0 0 0
30 1 5.127144224763458 5.066490146172742 -0.21837196313710194 0 0 0
49 1 21.395792614181193 6.7352019150481786 -0.23539199375699837 -1 0 0
50 1 1.308356832195246 8.946605030965197 -0.2135761676309862 0 0 0
490 1 8.683393388247055 9.30136479052901 10.624360062692698 0 0 0
505 1 21.310441585212132 10.570131523247316 10.611775711489297 -1 0 0
70 1 19.808376738229736 8.666118030817898 -0.23797846612279372 0 0 0
440 1 3.5460168694594865 1.604678388982189 12.481103393120103 0 0 0