LAMMPS (29 Oct 2020)
OMP_NUM_THREADS environment is not set. Defaulting to 1 thread. (src/comm.cpp:94)
  using 1 OpenMP thread(s) per MPI task
package omp 0
using multi-threaded neighbor list subroutines
package omp 2
set 2 OpenMP thread(s) per MPI task
using multi-threaded neighbor list subroutines
units metal
dimension 3
boundary p p p


lattice fcc 3.5440
Lattice spacing in x,y,z = 3.5440000 3.5440000 3.5440000
region box block 0 6 0 6 0 6 units lattice
create_box 1 box
Created orthogonal box = (0.0000000 0.0000000 0.0000000) to (21.264000 21.264000 21.264000)
  1 by 1 by 2 MPI processor grid
create_atoms 1 box
Created 864 atoms
  create_atoms CPU = 0.000 seconds


# read_restart after_heating_2400.lmp

variable P equal 0
variable dt equal 0.001
variable loopVar loop 22
variable sys_press equal "press/10000"
# print "step temp vol pe" file heating.txt screen no

pair_style eam/alloy
pair_coeff * * Co_Zhou04.eam.alloy Co
Reading eam/alloy potential file Co_Zhou04.eam.alloy with DATE: 2018-03-30




neighbor 2 bin
neigh_modify every 10 check yes

thermo 1000
thermo_style custom step temp vol press ke pe density

timestep $(dt)
timestep 0.0010000000000000000208

# fix 2 all npt temp 300 300 $(dt*100) iso 0 0 $(dt*1000)
# run 30000
# unfix 2





# dump_modify 1 append yes
# dump 3 all custom 10000 traj_npt_new.lammpstrj id type x y z

velocity all create 300 123123

print """
asdfasdfasdfasdfsadfasddsaffffffffffff
"""

asdfasdfasdfasdfsadfasddsaffffffffffff

label ensemble

print """
Hi HI Hi
# """

Hi HI Hi
# 
variable T equal 200+${loopVar}*100
variable T equal 200+1*100
# variable T equal 1200
# velocity all create 1200 123123
reset_timestep 0
fix 1 all npt temp $T $T $(dt*100) iso 0 0 $(dt*1000)
fix 1 all npt temp 300 $T $(dt*100) iso 0 0 $(dt*1000)
fix 1 all npt temp 300 300 $(dt*100) iso 0 0 $(dt*1000)
fix 1 all npt temp 300 300 0.10000000000000000555 iso 0 0 $(dt*1000)
fix 1 all npt temp 300 300 0.10000000000000000555 iso 0 0 1
print """
<--------------------------------------------------------------------->
<------------------ Equilibrating at temperature $T ----------------->
<--------------------------------------------------------------------->
"""

<--------------------------------------------------------------------->
<------------------ Equilibrating at temperature 300 ----------------->
<--------------------------------------------------------------------->

fix temp all print 1000 "$(step) $(temp) $(press) ${sys_press} $(vol) $(ke) $(pe) $(density)" file temp_hot.txt screen no title  "step temp press pressGiga vol ke pe density"
run 250000
Last active /omp style is pair_style eam/alloy/omp
Neighbor list info ...
  update every 10 steps, delay 10 steps, check yes
  max neighbors/atom: 2000, page size: 100000
  master list distance cutoff = 7.6035394
  ghost atom cutoff = 7.6035394
  binsize = 3.8017697, bins = 6 6 6
  1 neighbor lists, perpetual/occasional/extra = 1 0 0
  (1) pair eam/alloy/omp, perpetual
      attributes: half, newton on, omp
      pair build: half/bin/atomonly/newton/omp
      stencil: half/bin/3d/newton
      bin: standard
Per MPI rank memory allocation (min/avg/max) = 4.357 | 4.357 | 4.357 Mbytes
Step Temp Volume Press KinEng PotEng Density 
       0          300    9614.6812    11397.963    33.465452   -3803.5225        8.794 
    1000    292.24364    9740.8594    5075.0208    32.600218   -3771.0633    8.6800869 
    2000    308.80888    9769.2941    1277.6035    34.448095   -3768.8675    8.6548226 
    3000    282.35165    9762.6429    2084.0158    31.496751   -3769.2102     8.660719 
    4000    312.69627    9774.4644   -230.69085    34.881739    -3770.173    8.6502445 
    5000     304.9784    9778.9018    -593.9618    34.020799   -3769.2857    8.6463193 
    6000    300.50561    9781.8397   -1489.5613    33.521854   -3769.9585    8.6437223 
    7000     301.5514     9787.967   -2006.8281    33.638513   -3768.5439    8.6383114 
    8000    286.67475    9774.6844   -717.30143       31.979   -3770.4791    8.6500498 
    9000     315.3484    9777.3019   -401.57162    35.177589   -3769.5781    8.6477341 
   10000     292.2781    9772.9525   -54.585472    32.604062   -3769.8068    8.6515827 
   11000    312.20308    9774.6782   -5.8507894    34.826723    -3769.664    8.6500553 
   12000    298.31585    9760.6295    2574.4079    33.277583   -3769.2892    8.6625055 
   13000    304.80832    9756.6526    3968.4396    34.001827   -3767.9473    8.6660365 
   14000    283.10138    9755.2352    2077.5176    31.580385   -3771.7752    8.6672956 
   15000    304.81914    9764.8523    1660.2486    34.003034   -3769.8879    8.6587594 
   16000     299.8957    9761.2644     1774.842    33.453817   -3770.7242     8.661942 
   17000    301.54997     9757.742    3842.4719    33.638354   -3767.9125    8.6650689 
   18000    297.00402      9730.91    7457.9523    33.131245   -3770.0315    8.6889619 
   19000     323.4213     9751.071    5216.6137    36.078133   -3768.1002    8.6709969 
   20000    297.36314    9750.3274    4281.0862    33.171306    -3769.459    8.6716582 
   21000    294.35257    9754.3602    3383.6402    32.835472   -3769.4529     8.668073 
   22000    303.13607    9756.1039    2104.4041    33.815285   -3771.6786    8.6665238 
   23000    304.38855    9767.8956    1126.1085       33.955   -3769.7391    8.6560617 
   24000    293.41869    9767.6441    1348.6461    32.731297    -3768.992    8.6562845 
   25000    298.57487      9765.64    1132.7284    33.306476   -3770.2932     8.658061 
   26000     307.5873    9760.2439     2357.271    34.311827   -3770.0794    8.6628478 
   27000    298.49854    9738.9783     5831.477    33.297962   -3770.3233    8.6817636 
   28000    309.49109    9750.8773    4550.2688    34.524196   -3769.1684    8.6711692 
   29000    292.84263    9768.1694    1173.0264    32.667036   -3769.4026    8.6558191 
   30000    307.41349    9776.8905   -21.916905    34.292437   -3768.8429    8.6480979 
   31000    294.72541    9772.6475    397.23501    32.877063   -3769.2071    8.6518527 
   32000    305.70705    9790.9323   -2939.6715    34.102081   -3769.3233    8.6356952 
   33000    291.26846    9795.6692   -4592.1486    32.491435   -3770.7542    8.6315192 
   34000     305.6195     9793.353   -3135.2326    34.092315   -3769.1466    8.6335606 
   35000    300.33936     9793.202   -3186.9362    33.503308    -3769.169    8.6336937 
   36000    293.96226    9788.4483   -2935.9322    32.791933   -3770.1111    8.6378866 
   37000     302.4532    9795.1947   -3735.3708     33.73911   -3769.5138    8.6319373 
   38000    299.20694    9801.9742   -5523.3897    33.376985   -3770.6907    8.6259671 
   39000    300.55388    9806.6085   -5782.6832    33.527238    -3769.529    8.6218907 
   40000    296.27797    9784.9281   -1554.8595    33.050254   -3768.7555    8.6409942 
   41000    296.68827    9778.0925   -796.50409    33.096024   -3769.6853    8.6470349 
   42000    317.30319    9785.4333   -1823.7665    35.395649   -3769.5361    8.6405481 
   43000    292.29157    9796.2692   -3689.0812    32.605564   -3768.8199    8.6309905 
   44000     300.8487    9817.3796   -7316.5217    33.560125   -3769.0185    8.6124312 
   45000    303.38405    9793.3825   -3881.6226    33.842948   -3770.5733    8.6335346 
   46000    311.79682    9790.2789   -2064.1237    34.781404   -3768.2855    8.6362715 
   47000    302.09474    9774.4641   -565.59091    33.699123   -3770.5632    8.6502447 
   48000    308.84422    9782.0015   -1451.9972    34.452038   -3769.9049    8.6435794 
   49000    293.49336     9780.946   -2042.9815    32.739627   -3770.9346    8.6445122 
   50000    307.25444    9789.2435   -3105.3246    34.274696   -3770.5296    8.6371849 
   51000    295.98225      9782.41   -1537.0799    33.017265   -3769.5633    8.6432185 
   52000    295.82707    9783.0276   -1575.5279    32.999955   -3769.2515    8.6426728 
   53000    294.29255    9768.8505    147.44364    32.828777   -3770.9582    8.6552156 
   54000    292.90721    9765.5274    2149.5481     32.67424   -3768.1725    8.6581609 
   55000    306.16583    9765.1941    2177.5221    34.153259   -3768.5178    8.6584564 
   56000    288.04521    9753.8143    3135.2489    32.131876   -3770.0042    8.6685582 
   57000    295.55547     9753.514    4226.4243    32.969657    -3768.248    8.6688251 
   58000    297.87396    9749.5034    4017.8293    33.228289   -3770.2776    8.6723912 
   59000    295.69617    9755.1233    3319.7027    32.985353   -3769.7592    8.6673949 
   60000    298.77968    9768.0845    1506.9563    33.329323   -3768.5759    8.6558943 
   61000    298.42352    9769.4445    529.12421    33.289593    -3769.988    8.6546893 
   62000     302.0916    9777.5482   -410.46487    33.698773   -3769.3015    8.6475162 
   63000    287.51477    9777.3749   -714.31195    32.072705   -3769.3922    8.6476695 
   64000    308.49313    9791.7984   -2452.4516    34.412873   -3768.4588    8.6349314 
   65000    291.83133    9789.5774   -2802.3861    32.554224   -3769.5804    8.6368904 
   66000    316.77526    9791.6289   -3169.9602    35.336757   -3770.1848    8.6350808 
   67000    285.50874    9778.6954   -1346.1365     31.84893   -3770.4033    8.6465017 
   68000    310.67128    9783.8092   -1495.3322    34.655849   -3769.3944    8.6419824 
   69000    293.98978    9781.6448   -915.79352    32.795002   -3768.7246    8.6438946 
   70000    313.95899    9781.6321   -1162.5282    35.022598   -3769.6204    8.6439058 
   71000    293.33072    9772.7723   -598.41144    32.721483   -3771.1623    8.6517422 
   72000    303.25935    9780.1038     -582.088    33.829037   -3768.7558    8.6452566 
   73000    289.07566    9790.7054   -2361.3168    32.246825   -3768.1964    8.6358953 
   74000    297.57673    9793.4872   -4014.1727    33.195132   -3770.2945    8.6334423 
   75000    324.42081    9797.1635   -3852.3969     36.18963   -3769.5845    8.6302027 
   76000    307.62294    9792.5974   -4073.7603    34.315802    -3771.223    8.6342268 
   77000    294.39714    9787.0778   -3074.0428    32.840444     -3771.07    8.6390962 
   78000    302.13211    9783.1642    -1851.997    33.703291   -3770.0888    8.6425521 
   79000    300.97068    9786.5326   -2698.1666    33.573732   -3770.5209    8.6395775 
   80000    296.95818    9800.0622   -4082.1629    33.126132   -3768.5401      8.62765 
   81000     295.2396    9800.9596   -5709.3994    32.934421   -3771.1146      8.62686 
   82000    294.97927    9789.6728   -2809.9715    32.905382   -3769.6179    8.6368062 
   83000    294.94352    9785.4592   -1433.7069    32.901393   -3768.4392    8.6405252 
   84000    300.23413    9783.2903   -1424.1249    33.491569   -3769.3244    8.6424407 
   85000    308.11536    9785.9164   -1684.4988    34.370732   -3769.0038    8.6401215 
   86000    300.68914     9785.392   -2618.6028    33.542326   -3770.8285    8.6405845 
   87000    302.22582    9780.5159   -887.35751    33.713745   -3769.2634    8.6448924 
   88000    309.82051    9775.9632    -291.0935    34.560944   -3769.9409    8.6489183 
   89000    312.85842    9776.1489   -625.35515    34.899828   -3770.4729     8.648754 
   90000     299.1865    9777.3685    7.0979441    33.374705   -3768.5273    8.6476752 
   91000    296.21991    9770.3086    166.17455    33.043776   -3770.6524    8.6539239 
   92000    299.97619    9765.1087    2069.2171    33.462796   -3768.7616     8.658532 
   93000    290.24935     9763.127    2185.2522    32.377752   -3768.9149    8.6602895 
   94000    309.36062    9765.6951    2410.2919    34.509642   -3768.0419    8.6580122 
   95000    311.68125    9765.1144    952.65448    34.768513   -3771.1252     8.658527 
   96000    280.88757    9761.4039    2071.6948    31.333431   -3769.6488    8.6618183 
   97000    307.30809    9770.2675    796.82752    34.280679   -3769.3531    8.6539602 
   98000    290.98321    9761.3168    2339.1378    32.459615   -3769.3119    8.6618956 
   99000    302.47288     9754.089     3276.244    33.741305   -3770.3906    8.6683141 
  100000    306.38075    9766.9762    783.46858    34.177234   -3770.7375    8.6568765 
  101000    305.06695    9778.2261    195.53819    34.030677   -3767.9937    8.6469167 
  102000    297.33511    9774.6252   -441.97989    33.168179   -3770.3134    8.6501022 
  103000    292.94275    9782.6523   -985.85689    32.678204   -3768.2706    8.6430044 
  104000    303.87873    9784.2858   -1314.7907     33.89813   -3768.9406    8.6415615 
  105000    307.84193    9790.0618   -2712.2051     34.34023   -3769.5028     8.636463 
  106000    300.94206       9785.2   -2668.7454     33.57054   -3770.9559    8.6407541 
  107000     293.6427    9797.5087   -3696.4983    32.756285   -3768.3568    8.6298986 
  108000    290.99953    9790.8842   -3016.7568    32.461436   -3769.5374    8.6357376 
  109000    296.11704    9777.7164   -718.45797    33.032301   -3769.6571    8.6473674 
  110000    300.82416    9766.4168    257.55167    33.557388   -3771.7944    8.6573723 
  111000    306.98457    9769.7082    1001.2671    34.244591   -3769.3492    8.6544557 
  112000    295.41848    9760.4848    2677.6814    32.954376   -3769.0817    8.6626339 
  113000    293.18112    9738.1028    6728.4097    32.704795    -3768.988     8.682544 
  114000    322.38458    9750.7148    5402.2608    35.962485   -3767.5977    8.6713137 
  115000    291.88218     9756.294    2683.2091    32.559897    -3770.469    8.6663549 
  116000    300.59778    9766.3643    1448.7643    33.532135   -3769.1804    8.6574188 
  117000    298.69697    9765.6496    1549.9293    33.320097   -3769.5976    8.6580525 
  118000    302.32048    9743.7088    5101.0999    33.724305   -3770.2896    8.6775486 
  119000    303.18808    9744.4001    4963.2886    33.821087   -3770.2753     8.676933 
  120000    306.28807    9755.7611    3300.5366    34.166895   -3769.6416    8.6668284 
  121000    307.75107    9756.6192    2308.6888    34.330095   -3771.1692    8.6660661 
  122000    308.94036    9766.9535    1503.6914    34.462762    -3769.167    8.6568967 
  123000    305.76177     9765.883    900.12107    34.108185   -3770.8819    8.6578455 
  124000    306.77034     9776.141   -148.72297    34.220693   -3769.3509     8.648761 
  125000    298.95028    9774.7283    599.70612    33.348353   -3768.3064     8.650011 
  126000    293.49091    9764.9624    1304.3022    32.739353   -3770.2379    8.6586618 
  127000    313.15903    9773.7681    324.19006    34.933361   -3769.3227    8.6508607 
  128000    297.10994    9778.8654   -1139.8726    33.143061    -3770.129    8.6463514 
  129000    299.09869    9787.2837   -1555.0131    33.364909   -3768.0456    8.6389145 
  130000    299.06547    9773.5721   -569.18569    33.361203   -3770.6775    8.6510342 
  131000    305.39358    9773.4459   -393.51309    34.067113   -3770.8142     8.651146 
  132000    298.02878    9775.5088    51.742947    33.245558   -3768.7878    8.6493203 
  133000    288.20271     9771.276   -139.11303    32.149446   -3770.5972     8.653067 
  134000    306.93261    9779.3073    -1432.431    34.238794   -3770.5523    8.6459608 
  135000    319.40808      9790.09   -2817.2734    35.630453   -3770.0382    8.6364382 
  136000    285.89695    9796.8484   -3915.3093    31.892235   -3768.7569    8.6304803 
  137000    304.84255    9808.0294   -5312.9065    34.005645   -3768.0752    8.6206416 
  138000    293.66742    9791.5736   -3437.0547    32.759042   -3770.1013    8.6351296 
  139000     307.7102    9788.9413   -1851.1821    34.325536   -3768.2291    8.6374516 
  140000    296.06207    9785.4384   -2083.4186     33.02617   -3769.5685    8.6405436 
  141000    296.79832    9789.8577   -3368.8423    33.108299   -3770.8943     8.636643 
  142000    301.12421      9790.85   -2883.2066    33.590859   -3769.3605    8.6357677 
  143000    285.45621    9773.4777   -601.84733     31.84307   -3770.7476    8.6511177 
  144000    287.34448    9769.2204    900.76608    32.053709   -3769.3284    8.6548878 
  145000    291.16755    9766.8275    1100.4957    32.480179   -3769.9013    8.6570083 
  146000    299.43939    9757.1508     2195.116    33.402915   -3771.4629     8.665594 
  147000    306.07104    9747.0612    4728.9551    34.142686   -3769.9836    8.6745641 
  148000    289.64023     9758.368    2075.0774    32.309803   -3770.8864    8.6645131 
  149000    296.10009      9765.04    2464.5704    33.030411   -3767.8034     8.658593 
  150000    282.15425    9761.3042    2399.3617    31.474731   -3768.9025    8.6619067 
  151000    305.14265    9765.3824    1516.5178    34.039122   -3769.9371    8.6582894 
  152000    290.62992     9765.926    1342.7547    32.420205   -3769.7854    8.6578074 
  153000    302.42984    9780.9498   -985.85115    33.736504   -3769.3483    8.6445088 
  154000    307.67547    9784.1553   -2404.4644    34.321662   -3771.0855    8.6416767 
  155000    313.87834    9790.1772   -1882.8441    35.013602   -3767.9602    8.6363612 
  156000    288.44742    9779.8789   -1642.5358    32.176744   -3770.5502    8.6454554 
  157000    311.42373     9783.381   -1979.8354    34.739786    -3770.365    8.6423606 
  158000    297.73328    9783.6055   -1915.9536    33.212596   -3769.7316    8.6421623 
  159000    304.67235    9788.1393   -2290.2213    33.986659   -3769.5069    8.6381593 
  160000    306.85505    9788.2852   -2608.9727    34.230143   -3769.6252    8.6380306 
  161000    298.89819    9791.2953   -2770.5854    33.342542   -3768.9687     8.635375 
  162000    295.46601    9778.3651   -1251.5962    32.959678   -3770.4204    8.6467938 
  163000    303.51368    9770.6881    556.69416    33.857408   -3769.7448    8.6535877 
  164000    289.60095     9757.876    2227.4597    32.305421   -3770.7912    8.6649499 
  165000    304.52421    9757.1866    3415.5409    33.970134    -3768.825    8.6655621 
  166000    300.51224    9745.2493    4368.9823    33.522593   -3771.1014    8.6761769 
  167000    302.19109    9755.1655    3687.2941    33.709871    -3769.209    8.6673575 
  168000     307.0782    9771.1647     13.61968    34.255035   -3770.5384    8.6531656 
  169000    299.40813    9768.1505    479.25477    33.399428    -3770.395    8.6558358 
  170000    300.36399    9768.1797    1612.2612    33.506056   -3768.3523    8.6558099 
  171000    299.53367    9770.1009    367.64332    33.413432   -3770.3768    8.6541078 
  172000    307.75482    9772.0818    995.56871    34.330513   -3768.5962    8.6523536 
  173000    295.74703    9769.7484    272.57672    32.991026   -3770.7362    8.6544201 
  174000     306.8725    9775.4828    867.25753    34.232089   -3767.3293    8.6493433 
  175000    291.46634     9765.637    1374.9156    32.513509   -3769.7038    8.6580637 
  176000    292.20794     9769.581    273.67873    32.596236   -3770.3404    8.6545684 
  177000    312.29718    9787.0494   -2499.3142    34.837221   -3770.1829    8.6391213 
  178000    283.60056    9781.2881   -2097.5022     31.63607   -3770.7827    8.6442098 
  179000    298.95451    9794.0603     -3483.91    33.348826    -3769.315    8.6329371 
  180000    281.34151    9792.0724   -3611.7165    31.384069   -3770.0092    8.6346897 
  181000    299.75298    9800.2876   -4712.4194    33.437897   -3769.5333    8.6274516 
  182000    301.93213    9778.6714   -1358.3019    33.680984   -3770.4496    8.6465229 
  183000    312.27295    9781.9321   -1107.0399    34.834518   -3769.2648    8.6436408 
  184000    303.68024    9771.0781   -235.04998    33.875988   -3770.8829    8.6532424 
  185000    297.02196    9778.7994   -1269.5671    33.133247   -3770.3384    8.6464098 
  186000    296.40676    9787.3512   -1845.2736     33.06462   -3768.2823    8.6388549 
  187000     307.6451    9781.3754   -1655.5768    34.318274   -3770.5492    8.6441327 
  188000    294.42259    9777.8743   -468.15192    32.843283   -3769.0602    8.6472278 
  189000     311.2927    9768.1186    1290.5131     34.72517   -3769.5386    8.6558641 
  190000    301.95827    9760.3354    2349.6345      33.6839   -3770.0329    8.6627665 
  191000      303.373    9760.2663    2181.6259    33.841714   -3770.1327    8.6628278 
  192000    300.21304    9758.1535    1853.7686    33.489216   -3771.4948    8.6647035 
  193000     298.2891    9770.5798    1298.5249    33.274598   -3768.2885    8.6536836 
  194000    291.92557    9769.9317    289.69387    32.564737   -3770.3772    8.6542577 
  195000    303.93287    9774.1411    39.383247    33.904169   -3769.4021    8.6505306 
  196000    300.59709    9768.0108    298.67657    33.532058   -3771.2655    8.6559596 
  197000    299.18122    9770.3739    351.78032    33.374116   -3770.0561    8.6538661 
  198000    291.14051    9770.6963    492.53212    32.477162   -3769.5775    8.6535805 
  199000    306.58416    9781.4871   -999.43235    34.199925   -3769.0791     8.644034 
  200000    306.25314    9790.5273     -3326.41    34.162998   -3770.5819    8.6360524 
  201000    298.18222    9793.8913   -3924.1017    33.262676   -3770.3101    8.6330861 
  202000    308.00387    9786.1081   -1813.6426    34.358296   -3769.0848    8.6399522 
  203000    289.68548    9773.7485    1.4664155    32.314852   -3769.5304    8.6508781 
  204000    322.44313    9785.4678   -1031.6441    35.969017   -3768.1882    8.6405176 
  205000    289.75662    9769.6796    299.59179    32.322787   -3770.2666     8.654481 
  206000    295.54618    9767.4287    1412.1599    32.968621   -3769.0478    8.6564755 
  207000    292.71418    9757.1281    2954.2175    32.652707   -3769.6502    8.6656141 
  208000    301.62389    9757.2001    2774.6783    33.646598   -3770.1037    8.6655502 
  209000    300.93934    9764.7945    1113.0668    33.570237   -3770.7414    8.6588107 
  210000    290.17715     9768.749    741.72205    32.369698   -3769.9954    8.6553054 
  211000    307.06495    9765.3283    1539.0059    34.253558   -3769.7783    8.6583373 
  212000    293.75609    9762.2919    2562.2557    32.768934   -3768.6212    8.6610303 
  213000    296.89543    9763.3611    2159.9735    33.119132   -3769.1065    8.6600819 
  214000    278.61785    9756.9462    2963.1465     31.08024   -3769.4124    8.6657756 
  215000    302.31348    9761.3251    2316.2979    33.723524   -3769.6316    8.6618882 
  216000    304.18784    9773.9142    813.52667    33.932612    -3768.023    8.6507314 
  217000    291.94253    9773.0016    48.240296    32.566628   -3769.7753    8.6515392 
  218000    302.75593     9779.098   -3.5315731     33.77288   -3767.9988    8.6461458 
  219000    301.66701    9776.9842   -856.76345    33.651409   -3770.1792    8.6480151 
  220000    320.60177    9782.4342   -373.50316     35.76361   -3767.9163    8.6431971 
  221000    304.75821    9779.4401   -1304.3789    33.996238   -3770.4857    8.6458433 
  222000     291.2695    9787.4808   -1918.4523    32.491551   -3768.5529    8.6387405 
  223000    295.50465    9788.2011   -2063.7043    32.963988   -3768.6344    8.6381048 
  224000    294.67456    9777.2884   -1363.7146     32.87139   -3771.0079     8.647746 
  225000    300.75718    9779.6281   -770.33905    33.549916   -3768.9891    8.6456771 
  226000     295.7006    9772.6012   -331.73442    32.985847   -3770.6015    8.6518937 
  227000    314.74076    9777.3308   -1133.2156    35.109805   -3771.0247    8.6477085 
  228000    300.09753    9772.1757   -359.48368    33.476331   -3770.8885    8.6522704 
  229000    310.54527     9769.003     1474.172    34.641792   -3768.6747    8.6550804 
  230000    304.63168    9756.8376    2754.0124    33.982122   -3770.4511    8.6658721 
  231000    296.20737    9757.6615    3828.1394    33.042378   -3767.7599    8.6651404 
  232000     282.0708    9760.7333    2577.5977    31.465422   -3768.8594    8.6624134 
  233000     306.8995    9773.7713    405.45688    34.235101   -3769.1219    8.6508579 
  234000    305.76636    9773.8104    5.6242889    34.108698   -3769.7488    8.6508233 
  235000    295.64163     9770.949   -17.709438    32.979268   -3770.6361    8.6533567 
  236000     300.8742    9769.6179    1094.0708    33.562969   -3769.0404    8.6545357 
  237000    290.40409    9759.7414     1704.527    32.395013   -3770.9834    8.6632937 
  238000     301.1834    9752.2038    3604.8846    33.597462   -3770.3421    8.6699897 
  239000    311.10431    9752.4663    4317.3731    34.704154   -3768.8595    8.6697564 
  240000    294.38843    9749.2263    4142.1993    32.839473   -3770.0017    8.6726376 
  241000    277.73212    9763.3628    1692.3311    30.981436   -3769.4511    8.6600804 
  242000    302.66145    9776.2536   -349.13292     33.76234   -3769.5563    8.6486613 
  243000    299.43843    9772.2481   -532.62812    33.402808   -3771.1351    8.6522063 
  244000     302.5819    9779.9039   -675.93418    33.753466   -3769.2219    8.6454333 
  245000    290.87236    9775.2348   -190.31868     32.44725   -3769.3597    8.6495627 
  246000     290.6092    9774.6328    153.70467    32.417893   -3768.8138    8.6500955 
  247000    306.18278    9783.9874   -1397.3915     34.15515   -3768.8846     8.641825 
  248000    288.34013    9781.3607    -1197.077    32.164776   -3769.1437    8.6441456 
  249000    296.74478    9796.0735   -3416.9741    33.102326   -3768.3728     8.631163 
  250000    288.54974    9797.7937   -4355.4128    32.188158   -3769.4992    8.6296476 
Loop time of 710.952 on 4 procs for 250000 steps with 864 atoms

Performance: 30.382 ns/day, 0.790 hours/ns, 351.641 timesteps/s
106.2% CPU use with 2 MPI tasks x 2 OpenMP threads

MPI task timing breakdown:
Section |  min time  |  avg time  |  max time  |%varavg| %total
---------------------------------------------------------------
Pair    | 419.11     | 422.11     | 425.11     |  14.6 | 59.37
Neigh   | 0          | 0          | 0          |   0.0 |  0.00
Comm    | 31.128     | 34.667     | 38.207     |  60.1 |  4.88
Output  | 0.0091573  | 0.014419   | 0.019681   |   4.4 |  0.00
Modify  | 252.72     | 253.25     | 253.78     |   3.3 | 35.62
Other   |            | 0.9088     |            |       |  0.13

Nlocal:        432.000 ave         432 max         432 min
Histogram: 2 0 0 0 0 0 0 0 0 0
Nghost:        2876.00 ave        2876 max        2876 min
Histogram: 2 0 0 0 0 0 0 0 0 0
Neighs:        38016.0 ave       39699 max       36333 min
Histogram: 1 0 0 0 0 0 0 0 0 1

Total # of neighbors = 76032
Ave neighs/atom = 88.000000
Neighbor list builds = 0
Dangerous builds = 0


# fix 132 all momentum 100 linear 1 1 1 angular
fix out_file_1 all print 1000 "$(step) $(temp) $(press) ${sys_press} $(vol) $(ke) $(pe) $(density)" file one_phase_heating_$T_.txt screen no title  "step temp press pressGiga vol ke pe density"
fix out_file_1 all print 1000 "$(step) $(temp) $(press) ${sys_press} $(vol) $(ke) $(pe) $(density)" file one_phase_heating_300_.txt screen no title  "step temp press pressGiga vol ke pe density"

# dump 3 all custom 1000 traj_npt_new.lammpstrj id type x y z
run 50000
Last active /omp style is pair_style eam/alloy/omp
Per MPI rank memory allocation (min/avg/max) = 4.357 | 4.357 | 4.357 Mbytes
Step Temp Volume Press KinEng PotEng Density 
  250000    288.54974    9797.7937   -4355.4128    32.188158   -3769.4992    8.6296476 
  251000    298.60047    9789.7736   -2759.3497    33.309332   -3769.4474    8.6367173 
  252000    298.06256    9784.5185   -2838.5171    33.249328   -3771.4004    8.6413559 
  253000    304.61859    9788.7505   -2465.4461    33.980662   -3769.3116      8.63762 
  254000    296.86517    9789.7443   -2833.6379    33.115757   -3769.8111    8.6367431 
  255000    302.37246    9795.0851   -3447.0503    33.730103    -3769.037    8.6320339 
  256000     295.9886    9780.5021   -418.35081    33.017973   -3768.1746    8.6449045 
  257000    284.15838    9765.6819    1595.6552    31.698295   -3768.9137    8.6580239 
  258000    288.84316    9768.4266    1935.1115    32.220889   -3767.4179    8.6555911 
  259000    310.18685    9762.3346    1228.8853     34.60181   -3771.5311    8.6609925 
  260000    309.09437    9751.3504    3580.0056    34.479942   -3770.6105    8.6707485 
  261000     300.3569    9736.4361    5596.7695    33.505265   -3772.1637    8.6840304 
  262000    311.99503    9759.9421    2348.9182    34.803515   -3770.1709    8.6631156 
  263000    317.70698    9764.3368    1462.2396    35.440692   -3770.6482    8.6592165 
  264000    293.65748     9752.282    3822.5348    32.757934   -3769.9131    8.6699202 
  265000    290.62789    9752.4679    4016.4008    32.419979   -3769.2133     8.669755 
  266000    297.98713     9759.076    2833.4396    33.240912   -3769.3033    8.6638845 
  267000    309.44958    9773.2873    894.16023    34.519566   -3768.3029    8.6512863 
  268000    300.16546    9773.9702   -303.46222    33.483909    -3770.336    8.6506818 
  269000    305.98691    9779.9586   -1011.1247    34.133301   -3769.7301    8.6453849 
  270000    295.16748    9776.9584   -882.46634    32.926377   -3770.2265    8.6480379 
  271000    301.74605    9786.4983   -1707.1058    33.660226   -3768.6115    8.6396078 
  272000    312.54028    9790.2024   -3449.6215    34.864338   -3771.1365     8.636339 
  273000    308.25088    9787.8866   -2179.8483     34.38585   -3769.3816    8.6383824 
  274000    303.79401    9780.7443   -1450.1409    33.888679   -3770.1709    8.6446904 
  275000    298.83137    9779.1261    137.50991    33.335089   -3767.6852    8.6461209 
  276000    291.40877    9770.7917    391.05542    32.507086   -3769.5256     8.653496 
  277000    301.65348    9771.2726    956.95606    33.649899   -3768.7228    8.6530701 
  278000    308.78894    9755.4931    2828.1248    34.445871   -3770.9003    8.6670665 
  279000    309.21682    9736.8929    7277.9935    34.493602   -3768.4307    8.6836229 
  280000    299.46041    9748.2803    3614.9642     33.40526    -3771.643    8.6734792 
  281000    295.29701    9759.7656    2864.9533    32.940826   -3769.0484    8.6632722 
  282000    295.04133     9764.121    1364.4219    32.912305   -3770.3399    8.6594079 
  283000     305.7435    9772.3853    1160.8423    34.106147   -3768.0112    8.6520849 
  284000    302.47842    9765.9752    1117.5596    33.741923   -3770.1986    8.6577639 
  285000    313.76853    9776.3023   -1166.0748    35.001352   -3771.4432    8.6486183 
  286000    307.27938    9780.7922   -852.63993    34.277478   -3769.1761    8.6446481 
  287000    305.94618    9779.3506   -1310.8773    34.128757   -3770.5457    8.6459224 
  288000    300.08524     9786.032   -2485.6199     33.47496   -3770.2579    8.6400194 
  289000    303.06768    9809.9577   -6478.5582    33.807656   -3769.7768    8.6189471 
  290000    290.96026    9817.6149   -8217.3733    32.457055   -3770.4505    8.6122248 
  291000    302.66911    9798.3962   -4489.1624    33.763194   -3770.0281    8.6291169 
  292000      294.911    9798.2119   -4037.3615    32.897766   -3768.9365    8.6292792 
  293000    300.53481    9787.4515   -3020.5638    33.525111   -3770.9139    8.6387663 
  294000    307.11018    9783.3138   -2231.7246    34.258603   -3770.8221      8.64242 
  295000    295.14814     9779.003   -1042.5128     32.92422    -3769.869    8.6462298 
  296000    319.49906    9784.4942   -1404.1079    35.640601   -3769.0529    8.6413774 
  297000    295.35296    9776.5913   -698.82894    32.947067   -3769.9201    8.6483626 
  298000    287.21122    9782.2056   -1869.9901    32.038844   -3770.0918    8.6433991 
  299000    303.46247    9790.3453   -2851.4046    33.851695    -3769.492    8.6362129 
  300000    290.82318    9784.9791   -1996.1506    32.441764   -3769.5339    8.6409491 
Loop time of 139.297 on 4 procs for 50000 steps with 864 atoms

Performance: 31.013 ns/day, 0.774 hours/ns, 358.946 timesteps/s
109.7% CPU use with 2 MPI tasks x 2 OpenMP threads

MPI task timing breakdown:
Section |  min time  |  avg time  |  max time  |%varavg| %total
---------------------------------------------------------------
Pair    | 81.84      | 82.733     | 83.625     |   9.8 | 59.39
Neigh   | 0          | 0          | 0          |   0.0 |  0.00
Comm    | 5.2437     | 6.2598     | 7.2758     |  40.6 |  4.49
Output  | 0.0014506  | 0.0019141  | 0.0023776  |   1.1 |  0.00
Modify  | 50.013     | 50.136     | 50.258     |   1.7 | 35.99
Other   |            | 0.1669     |            |       |  0.12

Nlocal:        432.000 ave         436 max         428 min
Histogram: 1 0 0 0 0 0 0 0 0 1
Nghost:        2876.00 ave        2880 max        2872 min
Histogram: 1 0 0 0 0 0 0 0 0 1
Neighs:        35235.0 ave       36716 max       33754 min
Histogram: 1 0 0 0 0 0 0 0 0 1

Total # of neighbors = 70470
Ave neighs/atom = 81.562500
Neighbor list builds = 0
Dangerous builds = 0

unfix temp
unfix out_file_1
# unfix 1
# # clear
write_data after_heating_$T.in
write_data after_heating_300.in
System init for write_data ...
Last active /omp style is pair_style eam/alloy/omp
write_restart after_heating_$T.lmp
write_restart after_heating_300.lmp
System init for write_restart ...
Last active /omp style is pair_style eam/alloy/omp
next loopVar
# # # thermo_modify flush yes
jump in.lmp ensemble

print """
Hi HI Hi
# """

Hi HI Hi
# 
variable T equal 200+${loopVar}*100
variable T equal 200+2*100
# variable T equal 1200
# velocity all create 1200 123123
reset_timestep 0
fix 1 all npt temp $T $T $(dt*100) iso 0 0 $(dt*1000)
fix 1 all npt temp 400 $T $(dt*100) iso 0 0 $(dt*1000)
fix 1 all npt temp 400 400 $(dt*100) iso 0 0 $(dt*1000)
fix 1 all npt temp 400 400 0.10000000000000000555 iso 0 0 $(dt*1000)
fix 1 all npt temp 400 400 0.10000000000000000555 iso 0 0 1
print """
<--------------------------------------------------------------------->
<------------------ Equilibrating at temperature $T ----------------->
<--------------------------------------------------------------------->
"""

<--------------------------------------------------------------------->
<------------------ Equilibrating at temperature 400 ----------------->
<--------------------------------------------------------------------->

fix temp all print 1000 "$(step) $(temp) $(press) ${sys_press} $(vol) $(ke) $(pe) $(density)" file temp_hot.txt screen no title  "step temp press pressGiga vol ke pe density"
run 250000
Last active /omp style is pair_style eam/alloy/omp
Per MPI rank memory allocation (min/avg/max) = 4.357 | 4.357 | 4.357 Mbytes
Step Temp Volume Press KinEng PotEng Density 
       0    290.82318    9784.9791   -1996.1506    32.441764   -3769.5339    8.6409491 
    1000    401.92325    9820.0157   -2140.8679    44.835144   -3760.2862    8.6101193 
    2000    410.78132    9795.8752    3593.4561    45.823274   -3757.7344    8.6313377 
    3000    391.03018    9770.2985    7999.5673    43.620005   -3757.5184    8.6539328 
    4000    405.48963    9803.3628    2367.7308    45.232979   -3757.3469    8.6247453 
    5000    400.58732     9813.313   -479.16161    44.686119   -3759.0154    8.6160002 
    6000    388.11156    9828.5509   -3668.1021    43.294429   -3759.9106    8.6026422 
    7000    411.03454    9839.7374   -4573.7386    45.851522   -3758.5588    8.5928621 
    8000    400.20308    9806.0304    974.70042    44.643256   -3758.9723     8.622399 
    9000     394.6954    9784.6127    4500.7982    44.028865   -3759.2499    8.6412727 
   10000    408.40325    9804.5651    1858.6698    45.557997    -3757.981    8.6236877 
   11000    387.69033    9816.7947    -1088.546     43.24744   -3758.8599    8.6129444 
   12000    415.88124    9835.8963   -3686.2076    46.392178   -3758.2828    8.5962178 
   13000    400.70287    9849.1877   -6892.8589    44.699008   -3759.6406    8.5846173 
   14000    413.02797    9836.0066   -3258.0818    46.073892   -3757.3102    8.5961214 
   15000    391.87674    9797.8851    2238.8337    43.714441   -3759.2327    8.6295671 
   16000    400.63562     9798.073     2542.536    44.691506   -3758.2682    8.6294016 
   17000    425.81962    9814.3345   -132.68111    47.500819   -3758.6303    8.6151035 
   18000    392.80869     9784.679    5067.5989      43.8184   -3757.9887    8.6412142 
   19000    385.94764    9801.2748    2434.4087     43.05304   -3757.3713    8.6265826 
   20000    398.61161    9837.3649   -3619.8322    44.465725   -3756.8456    8.5949345 
   21000    391.10045    9828.4877   -2472.7788    43.627844   -3757.5605    8.6026975 
   22000    406.03807    9820.3977   -48.909158    45.294158   -3756.1124    8.6097844 
   23000    408.22584    9805.1864    1802.1955    45.538206    -3757.802    8.6231412 
   24000    402.74326    9779.9111    5657.1913    44.926617    -3758.873     8.645427 
   25000    390.48672    9819.1309   -605.15919    43.559381   -3757.4318    8.6108951 
   26000    391.90669    9829.4103   -2525.6848    43.717782   -3757.2007    8.6018901 
   27000    378.71333    9816.7652   -181.67627    42.246042   -3756.7509    8.6129703 
   28000    410.51223    9813.6656   -138.85901    45.793257   -3758.7607    8.6156906 
   29000     395.7546    9768.6634    7907.9545    44.147022   -3758.2869    8.6553813 
   30000    381.95952    9787.8703    4560.8909    42.608159   -3757.5849    8.6383967 
   31000    411.17982     9816.057   -689.25564    45.867728   -3758.7414    8.6135917 
   32000    382.45237    9826.4272   -2318.2662    42.663138   -3757.7958    8.6045014 
   33000    415.17885    9834.2239   -3688.2046    46.313826   -3758.6308    8.5976797 
   34000    413.70363    9823.8069   -1754.4779    46.149263   -3758.5659    8.6067965 
   35000     397.6504    9786.1548    5350.0882    44.358501    -3757.234    8.6399111 
   36000    399.53414    9794.8376    3670.0016    44.568635   -3757.3223    8.6322521 
   37000      395.099    9815.4358   -66.388579    44.073888   -3757.4255    8.6141368 
   38000    392.01384     9825.455   -3001.5378    43.729734   -3759.7095    8.6053528 
   39000    396.61906    9852.5097    -6554.322    44.243453   -3757.2501    8.5817228 
   40000    382.13273    9830.8641   -4278.3711    42.627481   -3760.3046     8.600618 
   41000     404.0337    9801.7165    2069.8494    45.070567   -3758.3804    8.6261938 
   42000    398.51687    9789.7513    3687.8819    44.455156   -3759.2235     8.636737 
   43000    411.34997    9798.1855    2593.6237    45.886708   -3758.7313    8.6293025 
   44000    405.81056    9820.9974   -1774.1306    45.268779   -3759.0236    8.6092586 
   45000    420.28151     9839.641   -3639.1329    46.883035   -3756.8888    8.5929463 
   46000    401.19039    9820.0939   -1964.2157    44.753392   -3759.5635    8.6100508 
   47000    403.80415    9811.2055    1138.1583    45.044961   -3756.7774     8.617851 
   48000     394.3622    9797.6541     1967.713    43.991697     -3759.58    8.6297705 
   49000    397.46825     9811.418    1114.5385    44.338182    -3756.918    8.6176643 
   50000    398.30901    9821.0305   -2489.3672    44.431969   -3760.7075    8.6092296 
   51000     384.6639    9840.4769   -4525.2202    42.909837   -3757.1999    8.5922164 
   52000    391.81618    9835.6653   -2579.3352    43.707684   -3755.2918    8.5964197 
   53000    410.08267    9801.8715    1591.8066    45.745339    -3759.532    8.6260575 
   54000    396.60303    9803.2368    2097.4472    44.241665   -3757.4961    8.6248561 
   55000    411.06296    9809.2279    1194.7745    45.854692   -3757.4717    8.6195884 
   56000    401.33596     9807.606    475.80806     44.76963    -3759.211    8.6210138 
   57000      391.297    9833.4813   -2623.2291    43.649769   -3756.3157    8.5983289 
   58000    385.63778    9846.0842   -5551.8021    43.018475   -3757.3205    8.5873231 
   59000     427.1124    9815.6994   -242.37589    47.645031   -3758.7581    8.6139054 
   60000     380.7971     9803.048    1220.8357    42.478489   -3758.7526    8.6250222 
   61000    400.75136    9816.0804    98.469088    44.704417    -3756.924    8.6135711 
   62000    405.65729    9813.0436   -541.87054    45.251682   -3759.4214    8.6162368 
   63000    405.79461    9807.5773    1293.1038    45.266999   -3757.7514    8.6210391 
   64000    414.34094    9813.1355   -642.52976    46.220355   -3760.0959     8.616156 
   65000    391.56414    9827.3031   -1928.1272     43.67957    -3756.987    8.6037345 
   66000    407.51165    9838.9051   -4533.0056    45.458538   -3758.5613     8.593589 
   67000    392.86746    9817.4736    630.38463    43.824956   -3755.2045    8.6123488 
   68000    405.39911    9784.6505     4382.632    45.222881   -3759.8062    8.6412393 
   69000    419.23662    9794.4213    3964.1272    46.766476   -3757.6924     8.632619 
   70000    401.17962    9804.6433    402.75941     44.75219    -3760.578    8.6236188 
   71000    396.99198    9826.0337   -1818.6939    44.285052   -3757.4928     8.604846 
   72000    396.35239    9828.2516   -3235.9513    44.213706   -3759.3792    8.6029041 
   73000     391.4057    9812.3728    1296.9199    43.661895   -3755.8569    8.6168258 
   74000    400.64815     9782.316    5952.4706    44.692904   -3757.4596    8.6433016 
   75000    392.33584    9781.9819    5471.5933    43.765654     -3758.25    8.6435967 
   76000    405.92032    9814.6547   -464.97262    45.281022   -3758.3998    8.6148223 
   77000     403.1647    9819.4044   -1597.2349    44.973629   -3759.3524    8.6106553 
   78000     417.5482    9826.2147   -2637.9416     46.57813   -3759.5395    8.6046875 
   79000    398.43263    9823.7104   -1056.2263     44.44576   -3756.4575    8.6068811 
   80000    388.43231    9802.1105     1982.585    43.330209   -3757.8718    8.6258471 
   81000    403.61173     9789.033    6195.3039    45.023496   -3754.6381    8.6373707 
   82000    390.88876    9795.9297    3168.8193     43.60423   -3757.5148    8.6312897 
   83000    393.83991    9828.6268   -2217.7864    43.933435   -3757.2821    8.6025757 
   84000    388.92289    9831.3429   -2472.0264    43.384933   -3756.8644    8.6001991 
   85000     406.8373    9815.9455   -858.37972    45.383313   -3759.1489    8.6136895 
   86000    392.06159    9811.9069    393.18841     43.73506   -3757.8398     8.617235 
   87000    402.97243    9814.8255   -161.39878    44.952181   -3757.7943    8.6146725 
   88000    385.12547    9801.2721    1585.7524    42.961325   -3759.1316     8.626585 
   89000    395.70154    9792.3702    4374.0749    44.141102   -3757.1318    8.6344271 
   90000    403.08362    9817.9703     295.3026    44.964585   -3755.9686    8.6119131 
   91000    390.30367    9842.0548   -5000.7234    43.538961   -3757.7746    8.5908388 
   92000    397.48634     9844.986   -5068.9585    44.340199   -3757.3268    8.5882811 
   93000    383.69926     9801.075    1508.1662    42.802229   -3759.1288    8.6267585 
   94000    386.29043    9798.7797    2635.2664    43.091279   -3757.9534    8.6287792 
   95000    406.55284     9820.513    707.02628    45.351581   -3754.8532    8.6096833 
   96000    385.72143    9823.8007   -1494.2145    43.027806   -3757.1981    8.6068019 
   97000    405.27649    9838.2609   -3199.6073    45.209202   -3755.6462    8.5941517 
   98000    399.37637    9808.5135    1673.0365    44.551035   -3756.9068    8.6202161 
   99000    388.81046    9782.3005    3903.9558    43.372392   -3761.3688    8.6433152 
  100000    410.31839    9786.4489    5139.3156    45.771634   -3757.8411    8.6396514 
  101000    402.65644     9800.948     1219.391    44.916932   -3760.2213    8.6268703 
  102000    402.15445    9832.6803   -2873.0319    44.860934   -3757.1038    8.5990294 
  103000    378.22523    9828.1251   -2578.6743    42.191594     -3757.66    8.6030149 
  104000    401.58828    9832.8555   -2999.2369    44.797777   -3757.4316    8.5988761 
  105000    383.49602    9802.8098    2055.4631    42.779558   -3757.8736    8.6252318 
  106000    393.07985    9780.4607     5782.917    43.848649   -3758.4458    8.6449411 
  107000    412.60931    9804.9971    1153.6358     46.02719   -3759.2037    8.6233077 
  108000    386.72666    9813.0548   -1245.9953    43.139941   -3760.6205    8.6162269 
  109000    396.80814    9824.4072   -877.01613    44.264545   -3755.8607    8.6062706 
  110000    367.44049    9797.5157    2183.2269     40.98854   -3758.9649    8.6298925 
  111000    401.02193    9768.7924    8282.9261      44.7346    -3757.325    8.6552671 
  112000    398.44935    9793.3286    3861.3857    44.447624   -3757.6202    8.6335821 
  113000    405.43054    9827.2656   -896.52024    45.226387   -3754.8883    8.6037674 
  114000    390.37216    9819.6518   -674.10446    43.546602   -3757.3973    8.6104384 
  115000    404.16274    9838.3119   -3617.0253    45.084962   -3756.7292    8.5941072 
  116000     397.6733    9822.1166   -1485.2733    44.361055   -3757.9408    8.6082776 
  117000    393.98312    9781.5087    5038.4346     43.94941   -3759.2074    8.6440149 
  118000    392.07807     9793.536    3807.9376    43.736899   -3757.2487    8.6333993 
  119000    392.60145    9804.9354     351.2146    43.795283   -3760.2911     8.623362 
  120000    417.89126    9826.0215   -1868.5351    46.616399   -3757.9399    8.6048567 
  121000    385.68937     9831.468   -3363.8665     43.02423   -3758.1267    8.6000898 
  122000     385.5261    9822.9654   -2494.5293    43.006017   -3759.4769    8.6075338 
  123000    387.45851     9799.519    4002.5202     43.22158   -3755.0942    8.6281283 
  124000     397.0812     9790.329    3778.5686    44.295006   -3758.8219    8.6362273 
  125000    412.43542    9806.1153     1851.868    46.007792   -3757.1634    8.6223243 
  126000    386.84273    9815.3917    -1849.281    43.152889   -3760.6852    8.6141755 
  127000    409.86801    9873.5432   -10177.603    45.721394   -3757.5637    8.5634412 
  128000    380.59828    9827.3638   -2550.0018    42.456311   -3757.7251    8.6036814 
  129000     384.4742    9807.2607    2248.8094    42.888676   -3755.4433    8.6213173 
  130000     389.6366    9797.5218    2613.7801    43.464549   -3758.6266    8.6298871 
  131000    404.34197    9805.2902    1303.8222    45.104955   -3758.5371    8.6230499 
  132000    414.14654    9828.2556   -2045.2032     46.19867   -3757.2822    8.6029007 
  133000    376.96112     9843.313   -5201.4588     42.05058   -3757.4305    8.5897407 
  134000    406.32658    9832.3039    -2423.255    45.326342   -3756.3012    8.5993585 
  135000    388.88906    9802.0531    2388.2403     43.38116    -3757.253    8.6258976 
  136000    405.22115     9808.619    769.04078    45.203029   -3758.3504    8.6201235 
  137000    405.05514    9813.0027    245.55477    45.184511   -3758.1045    8.6162726 
  138000    400.51762    9824.3284   -1036.9407    44.678343   -3756.7215    8.6063396 
  139000    383.66328    9844.6981    -5426.178    42.798217   -3757.2824    8.5885322 
  140000    423.31075     9842.171   -4495.4273    47.220951   -3757.5552    8.5907375 
  141000    402.61102    9803.5891    2127.7026    44.911865   -3757.5941    8.6245461 
  142000      386.228    9795.8509    1989.6268    43.084315   -3759.9633    8.6313591 
  143000    410.03088    9806.8299    1218.0556    45.739562   -3758.2369     8.621696 
  144000    375.47339    9810.4507   -719.24305    41.884621   -3759.7909     8.618514 
  145000    408.12867    9859.5028    -8100.612    45.527367   -3758.1963     8.575636 
  146000    391.81594    9839.9117   -4574.9881    43.707658   -3757.5701    8.5927099 
  147000    420.47403    9837.1203   -2498.0088    46.904511   -3755.1123    8.5951482 
  148000    394.08304    9807.1999    624.74824    43.960556    -3758.742    8.6213708 
  149000    425.29791    9796.0016    3493.7674    47.442622   -3758.2098    8.6312263 
  150000    404.06586    9767.5474    7142.3841    45.074155   -3760.3247    8.6563703 
  151000    403.33551    9812.0978    999.34244    44.992683   -3756.8687    8.6170672 
  152000     398.9231    9831.5289    -3580.068    44.500472   -3758.9293    8.6000364 
  153000     400.7579    9827.6791   -2929.3313    44.705147   -3759.0109    8.6034054 
  154000    416.33195     9813.389    661.32422    46.442455   -3757.5385    8.6159335 
  155000    387.04794    9794.3082    2454.7658    43.175781   -3759.5321    8.6327186 
  156000    406.01516    9809.0142     946.8591    45.291603   -3758.0506    8.6197761 
  157000    401.22248    9817.4184   -1971.6031    44.756972   -3760.5362    8.6123972 
  158000    392.03698      9850.23   -5813.7994    43.732315   -3756.9792    8.5837089 
  159000     401.2745    9831.6967   -4118.2177    44.762774   -3760.1416    8.5998897 
  160000    413.75524    9807.6846    1014.3684    46.155019   -3758.5501    8.6209447 
  161000    400.76319    9801.4447    3159.2456    44.705737   -3756.1426    8.6264331 
  162000    400.62729    9801.9143       580.51    44.690578   -3761.1967    8.6260198 
  163000    418.14724    9839.7738   -4853.7597    46.644954   -3758.9743    8.5928303 
  164000    389.51241    9848.0803   -6269.4321    43.450696   -3758.2675    8.5855826 
  165000    392.97983    9820.7559   -825.02497    43.837491   -3757.2048    8.6094704 
  166000    380.97321     9792.027    1979.0276    42.498135   -3761.2169    8.6347297 
  167000    408.40693    9808.0069    1060.5102    45.558408   -3758.4335    8.6206615 
  168000     391.1469    9808.5038    1181.2807    43.633025   -3757.3136    8.6202247 
  169000    407.07802     9825.126   -2565.1668    45.410166   -3759.4725     8.605641 
  170000    397.32154    9840.2619   -4580.5899    44.321816   -3758.0977    8.5924041 
  171000    402.99042    9830.3995   -4397.9235    44.954187   -3760.9769    8.6010245 
  172000    394.77161    9801.6859    1535.8787    44.037367   -3759.6458    8.6262208 
  173000    385.63833    9792.6218    3050.0989    43.018536   -3759.1743    8.6342053 
  174000    405.24547    9805.2377    1544.2253    45.205742   -3758.2258    8.6230961 
  175000    407.29212    9814.7856    229.10486    45.434049   -3757.5241    8.6147075 
  176000    396.87988    9816.1861   -211.26773    44.272548   -3757.6132    8.6134784 
  177000    393.65055    9817.5769    -580.7608    43.912311   -3757.7939    8.6122582 
  178000    419.19555    9820.1383   -1221.8164    46.761895   -3758.9197    8.6100119 
  179000    396.10244     9805.247    864.63308    44.185823   -3759.2473    8.6230879 
  180000    407.61916    9803.0057    2496.4648    45.470531   -3757.1484    8.6250594 
  181000    402.87245    9806.0157    883.40127    44.941028   -3759.2224    8.6224119 
  182000    398.03874    9839.6727   -2725.6563     44.40182   -3754.7677    8.5929186 
  183000    375.10609     9832.129   -2225.2511    41.843648   -3755.6059    8.5995115 
  184000    395.03779    9813.6517   -1103.9939     44.06706   -3760.3556    8.6157029 
  185000    415.73741    9812.8927    298.01135    46.376134   -3758.0691    8.6163693 
  186000    401.83262    9809.2597    646.58568    44.825033   -3758.7094    8.6195605 
  187000    405.80937    9814.0521    179.35466    45.268646   -3757.6508    8.6153513 
  188000    413.46561    9812.3239    13.802974    46.122711   -3758.8786    8.6168687 
  189000    408.09917    9811.9907    1168.1712    45.524076   -3756.4008    8.6171613 
  190000    377.84226    9805.8892    1343.3218    42.148873   -3757.8485    8.6225231 
  191000    398.32441     9847.017   -5837.7463    44.433687   -3758.3444    8.5865097 
  192000    395.41654    9849.4261   -5439.6682     44.10931   -3756.4369    8.5844095 
  193000    392.29392     9823.521   -2117.2086    43.760978   -3758.8413     8.607047 
  194000    402.74932    9813.6393    1068.8213    44.927293   -3756.3845    8.6157137 
  195000    398.94322     9791.743     4174.614    44.502716   -3757.6615    8.6349802 
  196000    391.95145    9795.9237    3723.7314    43.722774   -3756.9101     8.631295 
  197000    399.39028    9815.9683    376.34174    44.552587   -3756.6365    8.6136695 
  198000    401.12078    9817.0386   -778.36321    44.745627    -3758.591    8.6127304 
  199000    391.81659    9817.1298   -1070.0672     43.70773   -3758.6442    8.6126504 
  200000    400.27494    9829.4697   -2355.1999    44.651272   -3757.3186    8.6018381 
  201000    394.74184     9829.615   -1632.8905    44.034046    -3755.547    8.6017109 
  202000    381.49684    9786.0583    3117.8515    42.556547   -3761.0821    8.6399962 
  203000    393.66952    9787.7219    5356.0683    43.914427   -3756.7324    8.6385277 
  204000    401.67099    9814.1156    1612.9208    44.807003   -3754.9095    8.6152956 
  205000    397.11615    9816.9375   -600.33438    44.298905   -3758.1333    8.6128191 
  206000    405.19073    9838.4373   -3226.3726    45.199636   -3756.4237    8.5939976 
  207000    392.31852    9819.0232   -1312.3127    43.763721   -3758.5812    8.6109896 
  208000    404.15034    9795.2925    3370.9601    45.083579    -3757.856    8.6318511 
  209000    386.72846    9774.4915    6424.8854    43.140142   -3759.2049    8.6502205 
  210000    399.09659    9807.4818    1112.4848    44.519826   -3757.7528     8.621123 
  211000    391.75539    9824.2267   -2068.0778    43.700903   -3758.3333    8.6064287 
  212000     391.0116    9822.1087    -1346.459    43.617932   -3757.5114    8.6082846 
  213000    412.53123     9823.011  -0.91025513    46.018479   -3755.3891    8.6074938 
  214000    386.83898    9793.5872    3609.9858    43.152471   -3757.8538    8.6333541 
  215000    393.72254    9774.7472    6661.8592    43.920342    -3758.446    8.6499942 
  216000    409.75832     9801.377    2118.1216    45.709158   -3758.2503    8.6264927 
  217000       381.69    9825.3585   -2017.1846    42.578094   -3757.3599    8.6054373 
  218000    393.51136    9837.7667    -3435.165    43.896784   -3756.1575    8.5945834 
  219000    394.96661    9810.7305    419.44218    44.059119    -3758.181    8.6182682 
  220000    405.57667     9813.239    74.315361    45.242688   -3758.1192    8.6160651 
  221000    402.41974    9811.2582   -168.88072    44.890527   -3759.5935    8.6178046 
  222000    390.06297    9804.0944    1354.7802    43.512112   -3758.5316    8.6241016 
  223000     397.6832    9786.5976    5156.9158     44.36216   -3757.2401    8.6395202 
  224000    392.56142    9798.9162     3157.129    43.790818    -3757.067    8.6286591 
  225000    393.52168    9820.7052   -1801.1232    43.897936   -3758.8807    8.6095148 
  226000    406.94266    9826.4955   -2708.2005    45.395067   -3759.4276    8.6044416 
  227000    400.04768     9831.874   -2732.1749    44.625921   -3757.0042    8.5997346 
  228000    399.32785    9820.4257    -2294.894    44.545622   -3760.1415    8.6097598 
  229000    408.75208    9809.8618    107.20678     45.59691    -3759.359    8.6190314 
  230000    421.96323    9811.7796    -671.5577    47.070633   -3760.7822    8.6173467 
  231000    390.74444    9805.1386    942.50408     43.58813   -3758.9243    8.6231833 
  232000    385.28666    9832.3388   -2663.7411    42.979307   -3756.5524     8.599328 
  233000    396.74484    9856.8475   -6882.5049    44.257484   -3756.5294    8.5779461 
  234000    405.08388     9816.753   -726.74427    45.187716   -3758.3382    8.6129809 
  235000     393.2253    9797.7137    2459.5207    43.864874   -3758.7573    8.6297181 
  236000    395.56277    9805.7373    1023.7642    44.125622   -3758.5936    8.6226567 
  237000    409.95132    9816.1104   -1297.8022    45.730686   -3759.9692    8.6135448 
  238000    416.48762     9824.367   -1204.5727    46.459821   -3757.3709    8.6063058 
  239000    402.89555    9823.5494   -931.55939    44.943605   -3756.5724    8.6070221 
  240000    380.02925    9799.1754    2345.2352    42.392835   -3758.0127    8.6284308 
  241000    397.66603    9793.1892    5173.3647    44.360244   -3755.1626     8.633705 
  242000    393.52575    9789.5792    3710.4664     43.89839   -3759.0865    8.6368888 
  243000    401.79872    9827.8682   -2553.8697    44.821252   -3758.0117    8.6032398 
  244000    390.89049    9839.3784   -4256.1565    43.604423   -3757.3131    8.5931756 
  245000    390.72957    9820.0616   -1440.4033    43.586472    -3758.649     8.610079 
  246000    405.76613    9824.2695   -53.189842    45.263823   -3754.6674    8.6063912 
  247000    398.42344     9816.742   -743.71671    44.444735   -3758.3098    8.6129907 
  248000    427.93478    9796.8344     3338.073    47.736769   -3757.8109    8.6304926 
  249000    403.25761    9775.5306    6595.0586    44.983993   -3758.4713     8.649301 
  250000    394.82886    9801.5225    3137.9322    44.043753   -3756.1112    8.6263646 
Loop time of 826.321 on 4 procs for 250000 steps with 864 atoms

Performance: 26.140 ns/day, 0.918 hours/ns, 302.546 timesteps/s
96.1% CPU use with 2 MPI tasks x 2 OpenMP threads

MPI task timing breakdown:
Section |  min time  |  avg time  |  max time  |%varavg| %total
---------------------------------------------------------------
Pair    | 487.84     | 494.6      | 501.36     |  30.4 | 59.86
Neigh   | 0          | 0          | 0          |   0.0 |  0.00
Comm    | 45.656     | 54.279     | 62.901     | 117.0 |  6.57
Output  | 0.014042   | 0.021287   | 0.028532   |   5.0 |  0.00
Modify  | 274.26     | 276.1      | 277.94     |  11.1 | 33.41
Other   |            | 1.327      |            |       |  0.16

Nlocal:        432.000 ave         445 max         419 min
Histogram: 1 0 0 0 0 0 0 0 0 1
Nghost:        2876.00 ave        2889 max        2863 min
Histogram: 1 0 0 0 0 0 0 0 0 1
Neighs:        35406.5 ave       38225 max       32588 min
Histogram: 1 0 0 0 0 0 0 0 0 1

Total # of neighbors = 70813
Ave neighs/atom = 81.959491
Neighbor list builds = 0
Dangerous builds = 0


# fix 132 all momentum 100 linear 1 1 1 angular
fix out_file_1 all print 1000 "$(step) $(temp) $(press) ${sys_press} $(vol) $(ke) $(pe) $(density)" file one_phase_heating_$T_.txt screen no title  "step temp press pressGiga vol ke pe density"
fix out_file_1 all print 1000 "$(step) $(temp) $(press) ${sys_press} $(vol) $(ke) $(pe) $(density)" file one_phase_heating_400_.txt screen no title  "step temp press pressGiga vol ke pe density"

# dump 3 all custom 1000 traj_npt_new.lammpstrj id type x y z
run 50000
Last active /omp style is pair_style eam/alloy/omp
Per MPI rank memory allocation (min/avg/max) = 4.357 | 4.357 | 4.357 Mbytes
Step Temp Volume Press KinEng PotEng Density 
  250000    394.82886    9801.5225    3137.9322    44.043753   -3756.1112    8.6263646 
  251000    396.85096    9820.3559   -937.72705    44.269322   -3757.6175    8.6098211 
  252000    403.82082    9836.6513   -4830.4956    45.046821   -3759.7937     8.595558 
  253000    406.99673    9827.1998   -1528.9575    45.401098   -3756.7828    8.6038249 
  254000    392.69577    9793.7184     1768.639    43.805805   -3761.4053    8.6332385 
  255000     394.3323    9796.5953    3547.2253    43.988361    -3757.037    8.6307032 
  256000    405.75367    9810.1238    399.72599    45.262433   -3758.8632    8.6188012 
  257000    406.65673    9834.8413   -3452.7366    45.363171   -3757.8165    8.5971399 
  258000     381.6464    9847.0053   -5680.6275    42.573231   -3757.2118    8.5865198 
  259000    403.05741    9831.7962    -2356.668    44.961661   -3756.7498    8.5998026 
  260000    408.56501    9808.0644     935.6118    45.576042   -3758.1344    8.6206109 
  261000    398.19966    9807.5077   -137.78093    44.419772   -3760.4314    8.6211002 
  262000    391.08422    9814.6936    377.22894    43.626033   -3756.8373    8.6147882 
  263000    401.47006     9822.468   -2408.2424    44.784589   -3759.9434    8.6079697 
  264000     410.3517    9834.2416   -1975.1069     45.77535   -3754.9715    8.5976642 
  265000    403.29037    9792.6064    3506.1837    44.987648   -3758.6168    8.6342188 
  266000    388.14138    9771.9499     6293.852    43.297755   -3760.3791    8.6524703 
  267000    406.44605    9808.7228    846.19356    45.339668   -3758.1624    8.6200322 
  268000     380.6219    9824.1974   -1421.7951    42.458946   -3757.0702    8.6064544 
  269000    395.60375    9836.8555   -2996.0145    44.130194   -3755.9889    8.5953796 
  270000    406.33226    9807.0042    484.17334    45.326976    -3759.506    8.6215428 
  271000    411.52495    9763.3521    10241.058    45.906228    -3756.259    8.6600899 
  272000    390.99957    9791.1174    4169.4368    43.616591    -3757.536    8.6355319 
  273000    389.22651    9806.0635    1080.3915    43.418803   -3758.5539    8.6223699 
  274000    389.17415    9817.0761    926.40707    43.412962   -3755.0161    8.6126975 
  275000    378.50699    9836.1914    -4170.302    42.223025   -3758.0936    8.5959599 
  276000    408.34058     9856.987   -6941.8403    45.551007   -3756.9048    8.5778247 
  277000    402.06007    9816.5214   -544.47063    44.850406   -3758.3426    8.6131842 
  278000    378.93942    9797.6407    3663.2881    42.271263   -3756.1428    8.6297823 
  279000    401.26617    9794.6021    2668.8751    44.761846   -3759.6878    8.6324595 
  280000     386.5688    9813.1701    1184.1501    43.122332   -3755.5869    8.6161256 
  281000    385.44498    9847.0109   -6236.6858    42.996967   -3758.4898     8.586515 
  282000    410.51917    9834.5411     -3033.61    45.794031   -3757.0203    8.5974023 
  283000    391.25234    9816.4438   -304.68411    43.644787   -3757.5363    8.6132522 
  284000    392.46487    9807.5451    1887.4892    43.780047   -3756.0573    8.6210674 
  285000    414.73452    9796.1935    3770.4738     46.26426   -3757.1635    8.6310573 
  286000    403.62341    9800.4026    1973.6926    45.024799   -3759.0699    8.6273503 
  287000    412.85589    9844.3773   -4058.6238    46.054696   -3755.7055    8.5888121 
  288000    385.72273    9837.5253    -4868.689    43.027952   -3758.9078    8.5947944 
  289000    408.02695    9827.2607   -2040.7022    45.516021   -3757.6211    8.6037716 
  290000    405.43812    9799.5047    2276.2844    45.227233   -3758.9492    8.6281408 
  291000    396.17546    9793.1281    2825.1021    44.193969   -3759.7329    8.6337589 
  292000    423.92306    9820.6028   -1148.5508    47.289256   -3758.5937    8.6096045 
  293000    407.51344    9822.2136    -1876.301    45.458737   -3758.9554    8.6081926 
  294000    404.55918    9810.0949    290.65581    45.129186   -3758.9439    8.6188266 
  295000    429.92758    9777.8472     6559.066    47.959069   -3758.7497    8.6472518 
  296000    393.37685    9781.4742    5634.8866    43.881779   -3757.9797    8.6440453 
  297000    416.05481     9815.797    366.34431    46.411541   -3757.0474    8.6138198 
  298000    397.08772    9828.5256   -3154.1615    44.295733   -3759.1483    8.6026644 
  299000    403.32537    9838.9002   -2470.6251    44.991552   -3754.2502    8.5935933 
  300000    392.83602    9812.1264    184.50572    43.821449   -3757.8616    8.6170421 
Loop time of 183.823 on 4 procs for 50000 steps with 864 atoms

Performance: 23.501 ns/day, 1.021 hours/ns, 272.000 timesteps/s
87.4% CPU use with 2 MPI tasks x 2 OpenMP threads

MPI task timing breakdown:
Section |  min time  |  avg time  |  max time  |%varavg| %total
---------------------------------------------------------------
Pair    | 108.48     | 109.16     | 109.84     |   6.5 | 59.38
Neigh   | 0          | 0          | 0          |   0.0 |  0.00
Comm    | 12.553     | 13.672     | 14.792     |  30.3 |  7.44
Output  | 0.0069715  | 0.008082   | 0.0091925  |   1.2 |  0.00
Modify  | 60.203     | 60.64      | 61.077     |   5.6 | 32.99
Other   |            | 0.3406     |            |       |  0.19

Nlocal:        432.000 ave         432 max         432 min
Histogram: 2 0 0 0 0 0 0 0 0 0
Nghost:        2876.00 ave        2876 max        2876 min
Histogram: 2 0 0 0 0 0 0 0 0 0
Neighs:        35064.0 ave       36954 max       33174 min
Histogram: 1 0 0 0 0 0 0 0 0 1

Total # of neighbors = 70128
Ave neighs/atom = 81.166667
Neighbor list builds = 0
Dangerous builds = 0

unfix temp
unfix out_file_1
# unfix 1
# # clear
write_data after_heating_$T.in
write_data after_heating_400.in
System init for write_data ...
Last active /omp style is pair_style eam/alloy/omp
write_restart after_heating_$T.lmp
write_restart after_heating_400.lmp
System init for write_restart ...
Last active /omp style is pair_style eam/alloy/omp
next loopVar
# # # thermo_modify flush yes
jump in.lmp ensemble

print """
Hi HI Hi
# """

Hi HI Hi
# 
variable T equal 200+${loopVar}*100
variable T equal 200+3*100
# variable T equal 1200
# velocity all create 1200 123123
reset_timestep 0
fix 1 all npt temp $T $T $(dt*100) iso 0 0 $(dt*1000)
fix 1 all npt temp 500 $T $(dt*100) iso 0 0 $(dt*1000)
fix 1 all npt temp 500 500 $(dt*100) iso 0 0 $(dt*1000)
fix 1 all npt temp 500 500 0.10000000000000000555 iso 0 0 $(dt*1000)
fix 1 all npt temp 500 500 0.10000000000000000555 iso 0 0 1
print """
<--------------------------------------------------------------------->
<------------------ Equilibrating at temperature $T ----------------->
<--------------------------------------------------------------------->
"""

<--------------------------------------------------------------------->
<------------------ Equilibrating at temperature 500 ----------------->
<--------------------------------------------------------------------->

fix temp all print 1000 "$(step) $(temp) $(press) ${sys_press} $(vol) $(ke) $(pe) $(density)" file temp_hot.txt screen no title  "step temp press pressGiga vol ke pe density"
run 250000
Last active /omp style is pair_style eam/alloy/omp
Per MPI rank memory allocation (min/avg/max) = 4.357 | 4.357 | 4.357 Mbytes
Step Temp Volume Press KinEng PotEng Density 
       0    392.83602    9812.1264    184.50572    43.821449   -3757.8616    8.6170421 
    1000    502.46126    9847.1955    613.84494     56.05031   -3747.3177     8.586354 
    2000    502.42119    9867.7257   -2687.8345     56.04584   -3746.8876    8.5684898 
    3000    494.05363     9859.469   -524.74742    55.112426    -3745.269    8.5756653 
    4000    483.65725    9828.0837    4262.2971    53.952694   -3746.6419    8.6030511 
    5000    521.02522    9890.8126   -6240.1602    58.121148   -3746.0642    8.5484894 
    6000    493.37192    9830.6051    4262.0182     55.03638   -3745.9648    8.6008446 
    7000    525.18687    9868.8835   -2611.6918    58.585386   -3747.1984    8.5674846 
    8000    481.34426    9861.6273    -1604.181    53.694677   -3746.4649    8.5737885 
    9000    505.94403    9816.4378    6845.4487    56.438818   -3745.9395    8.6132576 
   10000    456.34654    9869.9861   -3544.1335    50.906144   -3746.8021    8.5665275 
   11000    506.03194    9856.1163    532.24355    56.448625   -3744.7628    8.5785825 
   12000    508.20097    9853.0208    608.63247    56.690584   -3745.7971    8.5812776 
   13000    487.07563    9858.5286   -1103.7915     54.33402   -3746.5869    8.5764834 
   14000    509.32307    9837.1575    3818.8666    56.815755    -3744.746    8.5951157 
   15000    507.17328    9886.5821   -5668.0001    56.575942   -3746.4548    8.5521473 
   16000    506.85006    9851.2086   -736.18917    56.539887   -3748.9856    8.5828562 
   17000    483.82985    9845.1348    1200.2025    53.971948   -3746.7028    8.5881513 
   18000    512.59481    9863.7115   -601.49939    57.180722   -3745.1233    8.5719769 
   19000    514.80588    9844.5964    1262.7251    57.427371   -3747.5215    8.5886209 
   20000    488.56087    9886.9202   -5797.8616    54.499701   -3745.9878    8.5518549 
   21000    516.30109    9848.9639    2038.7292    57.594164   -3744.4474    8.5848124 
   22000    495.93937    9840.7096    2254.1953    55.322783   -3746.5732    8.5920132 
   23000    537.21049    9875.8723   -2658.9996    59.926639   -3744.8763    8.5614217 
   24000    491.40319    9852.1692    363.77314    54.816765   -3746.4764    8.5820194 
   25000     498.2681    9858.3182   -532.29782    55.582557   -3745.5468    8.5766664 
   26000    477.03293    9845.1879    552.22322    53.213742    -3748.082    8.5881049 
   27000    499.16386    9852.9482      908.273     55.68248   -3744.9551    8.5813408 
   28000    515.22457    9859.6611   -688.44096    57.474077   -3746.0764    8.5754982 
   29000     506.7269    9863.5929   -1169.9584    56.526148   -3745.6306    8.5720799 
   30000     520.1844    9841.0342     2303.175    58.027353   -3746.6306    8.5917298 
   31000    502.57501    9855.3665    677.63819    56.062998    -3744.532    8.5792351 
   32000     522.1299    9887.2571   -5531.3656    58.244377    -3746.509    8.5515635 
   33000    489.65913    9823.2726    5093.2325    54.622213   -3746.6849    8.6072646 
   34000    512.02481    9868.0677   -1231.1641    57.117138   -3744.2855    8.5681928 
   35000    494.23734    9855.8038   -361.55546    55.132919   -3746.2913    8.5788545 
   36000    511.29776    9854.3003    1986.2295    57.036035   -3742.2959    8.5801634 
   37000    486.65002     9859.359   -1529.0418    54.286542   -3747.5594    8.5757611 
   38000    505.84524     9855.302    985.35282    56.427797   -3744.4699    8.5792913 
   39000    505.88327    9857.9273   -1074.4692     56.43204   -3747.5069    8.5770065 
   40000    500.32089    9892.9351   -5600.2538    55.811549   -3743.6123    8.5466554 
   41000      489.592    9812.2209    6683.5994    54.614724   -3747.7513    8.6169591 
   42000    518.30996    9868.4945   -2660.7904    57.818256    -3747.033    8.5678223 
   43000    482.84124    9838.1482    2418.7319    53.861667   -3747.0158    8.5942501 
   44000    497.36659    9857.9497   -999.27213    55.481992   -3747.0696     8.576987 
   45000    504.63178    9868.9155   -3025.0853    56.292434    -3747.081    8.5674567 
   46000    501.13273    9823.2207    6658.3659     55.90211    -3743.954    8.6073101 
   47000     490.8197     9914.988   -9211.2912    54.751676   -3743.5515    8.5276459 
   48000    494.52807    9846.3558    1277.1436    55.165351   -3746.5622    8.5870863 
   49000    497.09744    9850.5016   -218.74021    55.451968   -3748.1067    8.5834722 
   50000    501.51067    9870.6256    -2132.517     55.94427   -3744.7996    8.5659725 
   51000    502.03657    9822.8402    4775.4709    56.002935   -3748.1234    8.6076436 
   52000    490.34372    9885.9498   -3349.6273     54.69858   -3742.3268    8.5526943 
   53000    481.24221    9858.5726   -448.01747    53.683292    -3745.488    8.5764451 
   54000    518.85377    9839.7234    2711.2254    57.878919   -3746.8749    8.5928744 
   55000    485.34588    9865.2782   -3064.5116    54.141063   -3748.3863    8.5706156 
   56000    514.04579    9832.9929    3761.6082    57.342582   -3746.7423     8.598756 
   57000    501.59854    9873.5247   -2262.7449    55.954072   -3744.1563    8.5634573 
   58000    515.98685     9874.372   -4215.2991     57.55911   -3747.7379    8.5627224 
   59000    523.91801    9837.0638    3461.9544    58.443842   -3746.1574    8.5951975 
   60000    490.61399    9883.7481   -4997.9424    54.728729   -3745.7547    8.5545995 
   61000    509.75516    9836.9948     3724.268    56.863955   -3744.9703    8.5952578 
   62000     487.9814    9855.0975    144.58621    54.435059   -3745.1941    8.5794693 
   63000    505.28689    9863.8713   -1479.9701    56.365513    -3746.054     8.571838 
   64000    508.52751    9846.1742    1805.2107    56.727009   -3745.3676    8.5872446 
   65000    514.61046    9850.0762   -130.57359    57.405571   -3748.6413     8.583843 
   66000    493.49256    9888.7847   -6206.5369    55.049838   -3746.3505    8.5502424 
   67000    506.11894    9803.6397    9110.9009    56.458329    -3746.151    8.6245016 
   68000    513.76802    9876.4205    -3579.454    57.311596   -3746.0844    8.5609464 
   69000    522.58105     9852.914    1107.2196    58.294703   -3745.4968    8.5813706 
   70000    512.23162    9855.8034   -724.15979    57.140208   -3747.7956    8.5788548 
   71000    515.88783    9889.6829   -5835.8345    57.548064   -3745.8767    8.5494659 
   72000    487.19801    9799.1981    9431.8004    54.347671    -3746.608    8.6284108 
   73000    498.48373    9866.9535   -2716.3652     55.60661   -3746.9236    8.5691604 
   74000    500.78013    9861.0648    -1290.646    55.862777   -3746.4357    8.5742776 
   75000    514.11936    9841.1104    2689.6768    57.350789   -3745.7667    8.5916633 
   76000    493.00528    9873.2012   -3614.0383    54.995481   -3746.7102    8.5637378 
   77000     503.0394     9841.918    2699.7178    56.114802   -3745.6335    8.5909582 
   78000    484.44407    9850.2862    761.36737    54.040465   -3745.7614    8.5836599 
   79000     480.0706    9883.3496   -3454.6382    53.552598   -3742.6372    8.5549444 
   80000    494.99396    9830.0898    4267.3848    55.217322   -3746.2803    8.6012954 
   81000    502.92186     9867.521   -1903.9013     56.10169   -3745.3245    8.5686675 
   82000    492.65198    9853.0085   -774.25072     54.95607   -3748.0009    8.5812883 
   83000    499.94373    9831.4984    4872.1668    55.769476    -3744.441    8.6000631 
   84000    475.65663    9899.2945    -9420.151    53.060213   -3748.6517    8.5411649 
   85000    489.55318    9841.5205    2396.2986    54.610394   -3745.5686    8.5913053 
   86000    514.80381    9859.5316    1088.0838     57.42714   -3742.3692    8.5756109 
   87000    510.22692    9856.1674   -1082.8962    56.916581   -3748.0854     8.578538 
   88000      510.212    9849.8057    2660.5424    56.914917   -3742.7228    8.5840786 
   89000     484.5154    9883.4686   -5254.8353    54.048422    -3746.009    8.5548415 
   90000    518.39062    9837.4822    2551.4932    57.827254   -3747.2597     8.594832 
   91000    506.08211    9844.8439   -143.26751    56.454221   -3750.0113     8.588405 
   92000    509.58877    9871.2326   -2920.3695    56.845395   -3746.2022    8.5654457 
   93000    503.29609    9825.7168    4930.6493    56.143436   -3746.6481    8.6051235 
   94000    498.96357    9905.2461   -7086.8118    55.660137   -3742.7965    8.5360329 
   95000    495.63989    9842.5346    1597.5286    55.289376   -3747.5693    8.5904201 
   96000    496.81181    9849.3681    1335.2646    55.420106   -3745.3718    8.5844601 
   97000    487.44498    9865.0894   -2647.7388    54.375221   -3747.0136    8.5707796 
   98000    513.05512    9835.1379    3649.4833    57.232071   -3746.0126    8.5968807 
   99000    507.84487    9897.1777   -7682.8093    56.650859    -3746.655    8.5429917 
  100000    486.61001    9847.7936    1286.0281    54.282079   -3745.6675    8.5858326 
  101000    508.63162    9838.5403    1970.0837    56.738623   -3747.9955    8.5939076 
  102000    504.31443    9870.6915    -3230.722    56.257034   -3746.9724    8.5659152 
  103000    521.56683    9849.5493    1116.3152    58.181564   -3746.2204    8.5843021 
  104000    496.95245    9860.3738   -929.66452    55.435794   -3745.5915    8.5748784 
  105000     488.5499    9859.9955   -2022.9217    54.498477   -3748.1788    8.5752075 
  106000    515.08609    9825.9311    5287.3597    57.458629   -3746.2918    8.6049358 
  107000    485.81271    9866.3312   -2824.7091    54.193139   -3747.2551    8.5697009 
  108000    474.38681    9837.0824    2330.5449    52.918563   -3746.7633    8.5951813 
  109000    495.12697    9853.4094    918.48597    55.232159   -3744.4288    8.5809392 
  110000    499.40376    9873.6945   -2066.9407    55.709241   -3743.5288      8.56331 
  111000    505.83384    9824.0829     5650.969    56.426526   -3745.7328    8.6065547 
  112000    490.42995    9891.1434   -5099.4333    54.708199   -3743.3607    8.5482035 
  113000    499.58547    9834.9235    2681.4667    55.729512   -3747.6601    8.5970681 
  114000    517.75016    9857.8992    170.48653     57.75581   -3745.0916     8.577031 
  115000    496.43284    9870.3071   -2069.5574    55.377831   -3745.2309    8.5662489 
  116000      508.405    9828.9876    3862.7957    56.713343   -3747.3039      8.60226 
  117000    481.46637    9867.9463   -3371.3981    53.708298   -3748.1188    8.5682982 
  118000    504.30294    9848.5509    1358.9855    56.255752   -3746.1245    8.5851723 
  119000    502.38574     9831.016    3526.7381    56.041885   -3747.5612    8.6004851 
  120000    503.59435    9891.8884   -5846.9762    56.176708   -3744.5933    8.5475598 
  121000    481.44289    9824.8673    3572.3153    53.705679   -3749.0088    8.6058676 
  122000    503.98756    9870.0989   -1973.5524    56.220571   -3744.8636    8.5664295 
  123000    474.81592    9851.4959   -4.7162927     52.96643   -3747.0216    8.5826059 
  124000    528.69135    9846.7498    1184.7707    58.976316   -3747.2071    8.5867427 
  125000    499.26204    9866.5483   -2961.3004    55.693432   -3747.8833    8.5695123 
  126000    518.39088    9848.1253    1331.2348    57.827283   -3745.9292    8.5855433 
  127000    511.84689    9855.9714   -98.563405     57.09729   -3746.4397    8.5787086 
  128000       497.86    9890.9193   -7175.0282    55.537033   -3747.4814    8.5483972 
  129000    492.55233    9808.1949    8006.7273    54.944954   -3746.3773    8.6204962 
  130000    512.59723    9875.7261   -3778.0884    57.180992   -3746.3187    8.5615484 
  131000    499.33848    9847.9802    521.71015    55.701959   -3747.5289    8.5856699 
  132000    522.04487    9849.9988    960.75846    58.234891   -3746.2445    8.5839104 
  133000    486.55338    9888.0472    -5658.612    54.275762   -3745.9051    8.5508802 
  134000    520.27392    9825.8295    7070.7861    58.037339   -3742.7909    8.6050248 
  135000    483.35923    9846.1172     645.2194     53.91945   -3747.6127    8.5872944 
  136000    501.56201    9879.8118   -2665.3044    55.949997   -3742.7732    8.5580079 
  137000    481.17781    9830.4124    4256.9247    53.676109     -3745.53    8.6010132 
  138000    484.49774    9859.4637   -2314.2196    54.046452   -3748.6782      8.57567 
  139000    505.58426    9860.4493   -384.63114    56.398685   -3744.9014    8.5748128 
  140000    511.69704    9852.6836   -11.532926    57.080575   -3746.6338    8.5815713 
  141000    487.77262    9861.3626   -636.71199     54.41177   -3744.5711    8.5740186 
  142000    493.17121    9822.7994    5242.9329    55.013991   -3746.6205    8.6076793 
  143000     516.6695    9885.5333   -5590.5679    57.635261   -3746.6964    8.5530546 
  144000    510.84421    9837.4887    3049.0604    56.985441   -3746.3695    8.5948263 
  145000    514.31756     9862.619   -1802.0925    57.372898   -3747.1564    8.5729264 
  146000    483.12995    9879.3855   -3607.7086    53.893873   -3744.3972    8.5583771 
  147000    490.89409      9807.59    8774.5673    54.759975   -3745.0851    8.6210279 
  148000    485.63551    9874.3195   -3348.8552    54.173372   -3745.7886     8.562768 
  149000    498.26495    9851.6679    1308.7562    55.582205   -3744.3442    8.5824561 
  150000     508.5168    9851.6801    1335.8209    56.725815   -3744.8763    8.5824454 
  151000    495.07241    9870.7674   -3657.2641    55.226073    -3747.554    8.5658494 
  152000    512.51749    9825.8846    5917.4948    57.172097   -3744.7331    8.6049766 
  153000    480.89037    9866.0432   -3220.2522    53.644044   -3748.0904     8.569951 
  154000     515.5633    9865.1843   -1767.8958    57.511862   -3745.7919    8.5706971 
  155000    515.16084    9835.4648    3292.7918    57.466967   -3746.3497    8.5965949 
  156000    500.91384    9861.0892   -2248.6282    55.877693   -3747.8442    8.5742564 
  157000    507.86403    9850.0129    942.78886    56.652997   -3745.7081    8.5838981 
  158000    487.30408     9854.848     910.3904    54.359504   -3743.8009    8.5796866 
  159000    494.42692     9864.879   -1806.0744    55.154067   -3746.1235    8.5709624 
  160000    520.94108    9825.9763    5588.2255    58.111761   -3745.5585    8.6048962 
  161000    488.18053     9878.931   -4385.6605    54.457273   -3746.1984    8.5587709 
  162000    508.64234    9859.8111   -1798.3787    56.739819   -3748.0318    8.5753678 
  163000    502.60405      9837.17    3541.3857    56.066239   -3745.2052    8.5951048 
[...]
  114000    2426.5064    11495.758   -9997.4477    270.68044   -3317.7771    7.3550178 
  115000     2453.203    11389.302   -3527.0641    273.65849   -3330.8726    7.4237656 
  116000    2539.8122    11333.062    5678.3798    283.31987   -3330.3569    7.4606058 
  117000    2436.4238    11403.877   -3053.7294    271.78674   -3328.7848    7.4142773 
  118000    2321.6232    11409.747   -2286.8056    258.98057    -3322.501     7.410463 
  119000    2358.2339    11397.815   -1344.7858    263.06455    -3324.697    7.4182207 
  120000    2422.8055    11215.432    14162.639     270.2676   -3340.6001    7.5388543 
  121000    2422.1153    11416.322    1233.1915    270.19061   -3313.9285    7.4061953 
  122000    2461.6426    11328.877    1169.9073    274.59993   -3339.5373    7.4633614 
  123000    2343.9927    11370.283    8119.6258    261.47591   -3313.0201     7.436183 
  124000    2436.0309    11459.163    -9701.386    271.74291   -3322.7981    7.3785064 
  125000    2355.3314     11370.95   -2086.4538    262.74076   -3329.3568    7.4357471 
  126000     2403.268    11414.595   -4253.6199    268.08816   -3324.2698    7.4073157 
  127000    2347.3568    11319.997    3449.3243    261.85118   -3336.1222    7.4692165 
  128000    2466.5943    11351.444    2872.0493     275.1523   -3332.5862    7.4485243 
  129000    2594.4738    11458.464   -7789.8477    289.41746   -3324.5429    7.3789566 
  130000    2401.2348    11381.011    -2761.863    267.86136   -3332.5222    7.4291739 
  131000     2296.968    11374.691   -5909.4968    256.23024   -3340.0956    7.4333017 
  132000    2303.6785    11440.763   -12607.509     256.9788   -3333.1859    7.3903731 
  133000    2458.9257    11310.637      6282.25    274.29686    -3330.568    7.4753972 
  134000    2468.8045    11308.367    5890.4216    275.39886   -3335.9828    7.4768979 
  135000     2432.793    11299.921    4968.6917    271.38172   -3340.0249    7.4824863 
  136000    2396.7313    11392.675   -2730.6231    267.35898   -3324.3952    7.4215674 
  137000    2347.7737    11349.573   -3778.0239    261.89769    -3341.245    7.4497524 
  138000    2415.0002    11428.976   -754.34577     269.3969   -3315.9102    7.3979949 
  139000    2518.4561    11254.591    15630.644    280.93757   -3328.0142    7.5126234 
  140000    2264.1277    11297.102    7114.8942    252.56685    -3330.638    7.4843534 
  141000    2449.9755    11435.562   -10787.528    273.29845   -3333.3726    7.3937342 
  142000    2392.1521    11418.828   -7143.2609    266.84817    -3329.547    7.4045699 
  143000    2529.5479    11388.389   -1668.3401    282.17488   -3330.9876    7.4243609 
  144000    2484.4123    11392.572   -2706.7206    277.13993   -3331.1726    7.4216347 
  145000    2342.8338     11219.56    9430.7193    261.34664   -3346.2582    7.5360804 
  146000    2423.3334    11359.815   -2441.4638    270.32649   -3330.7186    7.4430357 
  147000     2451.866    11334.021    1814.0689    273.50934   -3334.2333    7.4599746 
  148000    2434.3246    11418.563     -7118.98    271.55257   -3333.0458    7.4047415 
  149000    2486.1533    11238.827    3767.3443    277.33414   -3355.5247    7.5231609 
  150000    2376.5676    11416.092   -589.50062    265.10969    -3314.976    7.4063441 
  151000    2290.6021    11272.887    11382.262    255.52011   -3330.8352    7.5004308 
  152000    2410.8636    11361.706   -1257.6032    268.93546   -3329.5746    7.4417967 
  153000    2355.4165    11423.711   -1734.3653    262.75026   -3318.4638    7.4014044 
  154000    2322.6343    11491.448   -17227.678    259.09335   -3328.8323    7.3577765 
  155000     2420.693    11384.751   -145.95284    270.03195   -3328.1973    7.4267332 
  156000    2501.7704    11264.164    9065.8364    279.07625    -3340.043    7.5062391 
  157000    2417.7333    11379.612   -3282.2536    269.70179    -3332.963    7.4300873 
  158000    2310.3701    11549.886   -16064.673    257.72526   -3313.8959    7.3205491 
  159000    2317.0859    11300.729    6097.5327    258.47442   -3335.6419    7.4819515 
  160000    2335.6998    11383.308   -5088.3949    260.55082   -3333.3349    7.4276746 
  161000    2395.0985    11411.303   -780.95502    267.17684   -3319.4024    7.4094524 
  162000    2474.2424     11344.02    5966.0918    276.00546   -3323.3093    7.4533988 
  163000    2341.1276     11416.81   -8061.8654    261.15631   -3327.5276    7.4058783 
  164000      2345.48     11412.98    -8179.817    261.64182   -3328.9449    7.4083635 
  165000    2395.3685    11484.928   -9235.4597    267.20696   -3321.8246    7.3619535 
  166000    2341.9022    11423.839   -4700.5251    261.24272   -3325.7556    7.4013215 
  167000    2443.8426    11306.302    8831.2405    272.61432   -3329.1971    7.4782638 
  168000    2409.0367    11328.469    8290.6598    268.73167   -3324.2398    7.4636303 
  169000    2388.8756    11395.787   -5919.2689    266.48267   -3330.5806    7.4195408 
  170000    2440.9424    11415.597   -7698.5372    272.29079   -3331.1635    7.4066656 
  171000    2383.5713    11372.871   -2331.0085    265.89096   -3334.5653    7.4344908 
  172000    2502.0624     11396.48    -1083.977    279.10883   -3324.7182    7.4190895 
  173000    2527.9833    11442.014    5105.7212    282.00035   -3309.1622     7.389565 
  174000    2361.7651     11342.17    649.20725    263.45845   -3335.0486    7.4546149 
  175000    2313.6441    11435.151   -7214.2562    258.09048   -3323.2908    7.3939999 
  176000    2406.7421    11288.539    1829.4371     268.4757   -3345.5727    7.4900307 
  177000    2399.0489    11224.676    9226.3159    267.61751   -3348.0777     7.532646 
  178000    2496.9837    11351.773    2183.6358    278.54229   -3331.3965    7.4483087 
  179000    2422.7877    11355.198   -3549.4213    270.26561   -3342.4487    7.4460618 
  180000    2360.5855    11390.661   -1305.6476    263.32687   -3328.7325    7.4228796 
  181000    2378.7673    11427.206   -3171.3312    265.35507   -3319.6631     7.399141 
  182000    2471.8386    11301.054    11422.104    275.73731   -3327.1975    7.4817363 
  183000    2430.0779    11366.259    4416.2901    271.07885   -3320.8349    7.4388158 
  184000    2387.8189    11334.887    6319.0267    266.36479   -3323.8518    7.4594045 
  185000    2424.3345    11458.897   -5939.5895    270.43816   -3321.6374    7.3786774 
  186000    2365.6667    11198.491    14321.202    263.89368   -3344.5719     7.550259 
  187000    2414.7022     11398.89   -4791.5064    269.36367   -3328.1915    7.4175209 
  188000    2304.5244    11400.519   -5660.5985    257.07317    -3327.236     7.416461 
  189000    2478.7229    11423.138   -1582.0248    276.50527   -3322.2966    7.4017757 
  190000    2497.5514    11307.651    1986.7248    278.60562   -3344.4013    7.4773712 
  191000    2483.6823    11402.151   -4781.7057     277.0585   -3327.2212    7.4153995 
  192000    2359.2056    11403.043   -1422.1153    263.17294    -3323.431    7.4148197 
  193000    2279.0432    11448.699   -5645.8703     254.2307   -3321.5891    7.3852504 
  194000    2403.5843    11417.407     -8861.63    268.12345    -3331.018    7.4054911 
  195000    2402.8091    11382.279    496.68089    268.03697   -3328.5823     7.428346 
  196000    2397.8465    11328.517    6175.0842    267.48338   -3327.1529     7.463599 
  197000    2430.8112    11374.358    -5169.994    271.16065   -3338.2827    7.4335191 
  198000    2477.7653    11485.472   -5361.2159    276.39845    -3310.372    7.3616052 
  199000    2383.5481    11405.227    1365.1851    265.88838   -3320.8103    7.4133996 
  200000    2388.2789    11383.025   -5106.6044    266.41611   -3330.7844    7.4278593 
  201000    2372.0197    11410.997   -1603.6829    264.60236    -3320.947    7.4096513 
  202000    2331.4488    11331.256    3385.4318    260.07662   -3330.3946    7.4617949 
  203000     2468.628    11367.009   -2833.1746    275.37917   -3335.4837    7.4383249 
  204000    2454.1603    11339.598    4524.5361    273.76528   -3323.7913    7.4563055 
  205000    2378.9662    11363.691    3351.8388    265.37727   -3322.3643    7.4404969 
  206000    2394.6308        11321   -945.46958    267.12468   -3338.5341    7.4685545 
  207000    2329.8117    11329.571    1717.3077      259.894   -3335.9887    7.4629044 
  208000    2371.7964    11368.467    -6726.054    264.57745   -3337.7267    7.4373712 
  209000     2389.685    11279.331   -2236.1123    266.57296   -3352.3307    7.4961457 
  210000    2472.7665    11338.815    6098.5523    275.84083    -3326.911    7.4568206 
  211000    2362.3729    11376.902   -431.43693    263.52625   -3324.5027    7.4318565 
  212000    2515.3087    11346.787    11680.776    280.58647   -3315.4064    7.4515816 
  213000    2391.7983    11349.544    2954.0242     266.8087   -3326.6974    7.4497713 
  214000     2336.879    11350.724   -658.26396    260.68237   -3335.2153    7.4489966 
  215000    2342.9043    11435.269   -10620.256     261.3545   -3327.7077    7.3939235 
  216000    2359.9999    11357.454    2514.5174    263.26154   -3326.6547    7.4445825 
  217000    2411.7811    11345.775    1848.5779    269.03781   -3331.0619    7.4522461 
  218000    2360.9691    11353.005    274.29553    263.36965   -3329.2295    7.4475001 
  219000    2217.3943    11417.561   -10409.148    247.35367   -3333.7692    7.4053913 
  220000    2343.3063    11334.518    3696.5509    261.39934   -3327.9651     7.459647 
  221000    2451.4048    11357.553   -979.95082    273.45789   -3335.1322    7.4445178 
  222000    2444.9036    11326.649    3490.1565    272.73268   -3334.0182      7.46483 
  223000    2242.9585    11293.054    641.04322     250.2054   -3340.6373    7.4870363 
  224000    2401.3249    11307.989    1361.1055     267.8714   -3346.5655    7.4771482 
  225000    2416.6226    11456.771   -3126.4436    269.57789    -3316.045    7.3800468 
  226000    2395.6992    11327.947    2207.1765    267.24385   -3332.7233    7.4639746 
  227000    2335.9596    11381.443   -7678.8251    260.57981   -3337.6938    7.4288916 
  228000    2396.7012    11448.407    259.09231    267.35562    -3313.166    7.3854383 
  229000    2396.4886    11297.288    13196.415    267.33191    -3320.926    7.4842302 
  230000    2358.7385    11283.091    10584.048    263.12083   -3328.3765    7.4936474 
  231000    2437.3109    11469.912   -14465.871     271.8857   -3332.3146    7.3715917 
  232000    2427.5967    11377.168   -4849.4876    270.80207   -3336.2932    7.4316832 
  233000    2442.2932    11298.512    6257.2461    272.44148   -3332.2972    7.4834198 
  234000     2348.396     11254.12     6195.059     261.9671   -3347.2796    7.5129382 
  235000    2465.0588    11369.492    1256.6468    274.98102   -3327.7515    7.4367004 
  236000    2349.2728    11400.443    -157.3932    262.06492   -3321.3158     7.416511 
  237000    2402.9692    11408.794   -6600.6588    268.05484   -3330.4001     7.411082 
  238000    2466.3529    11262.039    3264.4273    275.12538   -3351.3523    7.5076555 
  239000    2401.8839    11340.548    9363.9811    267.93376   -3317.4944    7.4556809 
  240000    2375.3654    11380.101    4028.1666    264.97559     -3319.69    7.4297676 
  241000    2424.3615    11360.711   -11381.399    270.44117   -3352.5837    7.4424483 
  242000    2371.5525    11363.251   -2819.9625    264.55025   -3335.2184    7.4407852 
  243000    2390.8756    11364.585   -772.58318    266.70577   -3330.2471    7.4399114 
  244000    2456.5507    11440.393   -5675.6681    274.03193   -3321.9987    7.3906122 
  245000    2447.6631    11282.716    5992.0086     273.0405   -3341.5416    7.4938969 
  246000    2424.8298    11455.232   -7872.7204    270.49342   -3320.1458    7.3810381 
  247000    2440.0994    11407.684   -2099.8002    272.19676   -3321.9833    7.4118027 
  248000    2381.2417    11374.574   -1171.2044     265.6311   -3331.6066    7.4333777 
  249000    2352.0284    11342.316   -3650.4783    262.37231   -3340.4712    7.4545189 
  250000    2365.2459    11389.724    804.57036    263.84674   -3322.3641    7.4234903 
Loop time of 762.746 on 4 procs for 250000 steps with 864 atoms

Performance: 28.319 ns/day, 0.847 hours/ns, 327.763 timesteps/s
102.8% CPU use with 2 MPI tasks x 2 OpenMP threads

MPI task timing breakdown:
Section |  min time  |  avg time  |  max time  |%varavg| %total
---------------------------------------------------------------
Pair    | 445.38     | 448.14     | 450.9      |  13.0 | 58.75
Neigh   | 6.8928     | 6.9419     | 6.9911     |   1.9 |  0.91
Comm    | 40.037     | 43.667     | 47.296     |  54.9 |  5.72
Output  | 0.023837   | 0.032555   | 0.041272   |   4.8 |  0.00
Modify  | 261.52     | 262.34     | 263.15     |   5.0 | 34.39
Other   |            | 1.625      |            |       |  0.21

Nlocal:        432.000 ave         435 max         429 min
Histogram: 1 0 0 0 0 0 0 0 0 1
Nghost:        2411.00 ave        2432 max        2390 min
Histogram: 1 0 0 0 0 0 0 0 0 1
Neighs:        30135.0 ave       31409 max       28861 min
Histogram: 1 0 0 0 0 0 0 0 0 1

Total # of neighbors = 60270
Ave neighs/atom = 69.756944
Neighbor list builds = 4932
Dangerous builds = 0


# fix 132 all momentum 100 linear 1 1 1 angular
fix out_file_1 all print 1000 "$(step) $(temp) $(press) ${sys_press} $(vol) $(ke) $(pe) $(density)" file one_phase_heating_$T_.txt screen no title  "step temp press pressGiga vol ke pe density"
fix out_file_1 all print 1000 "$(step) $(temp) $(press) ${sys_press} $(vol) $(ke) $(pe) $(density)" file one_phase_heating_2400_.txt screen no title  "step temp press pressGiga vol ke pe density"

# dump 3 all custom 1000 traj_npt_new.lammpstrj id type x y z
run 50000
Last active /omp style is pair_style eam/alloy/omp
Per MPI rank memory allocation (min/avg/max) = 4.359 | 4.359 | 4.359 Mbytes
Step Temp Volume Press KinEng PotEng Density 
  250000    2365.2459    11389.724    804.57036    263.84674   -3322.3641    7.4234903 
  251000    2445.6181    11312.003    6973.6998    272.81238   -3327.2706    7.4744947 
  252000    2418.2064    11379.672    4952.9882    269.75457   -3314.8046    7.4300479 
  253000    2465.1053    11276.343     9375.824    274.98621   -3332.3622    7.4981315 
  254000    2312.7827    11329.281   -3855.7213    257.99439   -3343.9306    7.4630958 
  255000     2411.947    11403.565   -5321.2326    269.05632   -3333.1642    7.4144802 
  256000    2379.8616    11298.387    7546.5373    265.47714   -3327.8028    7.4835022 
  257000    2423.2068    11330.755     9116.123    270.31237   -3322.5767    7.4621245 
  258000    2467.8554    11316.547    3639.4814    275.29299   -3334.4255    7.4714936 
  259000    2469.6309    11380.309   -5548.1241    275.49104   -3334.1992     7.429632 
  260000    2337.3795    11490.001   -10039.134     260.7382   -3317.8367    7.3587031 
  261000    2315.5283    11416.936   -3811.7052    258.30066    -3321.467    7.4057965 
  262000    2448.0557    11414.628   -1499.1527    273.08429   -3322.5485     7.407294 
  263000     2461.726    11318.868     4107.961    274.60924   -3338.9669    7.4699611 
  264000    2435.0562    11398.489   -2972.3369    271.63419   -3325.3933     7.417782 
  265000     2429.877    11379.063   -1922.1001    271.05644   -3327.3536    7.4304455 
  266000    2334.3478    11264.387    9919.9475    260.40001   -3336.7664    7.5060906 
  267000     2408.414    11389.516    2809.1253    268.66221    -3316.557    7.4236258 
  268000    2468.7163    11289.248    5899.2125    275.38902   -3341.7029    7.4895609 
  269000    2500.4725    11429.325   -6329.0557    278.93147   -3327.5876    7.3977689 
  270000    2483.9993    11368.252    1257.4053    277.09386   -3326.9141    7.4375114 
  271000    2367.8344    11292.927    4588.5334    264.13549   -3340.8971    7.4871207 
  272000    2319.1985    11345.877   -4258.5041    258.71009   -3336.0831     7.452179 
  273000    2377.3338    11393.755   -9838.1443    265.19516   -3341.4636    7.4208639 
  274000    2472.2713    11369.234   -7280.0797    275.78559   -3345.9069    7.4368694 
  275000    2399.3819    11304.595   -1291.7419    267.65467   -3345.8876    7.4793928 
  276000    2293.3059    11348.343   -5195.5926    255.82172   -3342.4882    7.4505595 
  277000    2452.8607    11447.054   -4381.7055    273.62031   -3318.3735    7.3863112 
  278000    2346.5294    11370.302   -3508.8394    261.75889   -3332.3972    7.4361706 
  279000    2454.0521    11491.388   -8964.4537    273.75321   -3318.5381    7.3578152 
  280000     2279.344    11243.036    7959.5541    254.26426   -3341.2972    7.5203446 
  281000    2343.9213    11290.994    8102.3296    261.46794   -3330.6363    7.4884024 
  282000    2410.4694    11492.186   -6293.3037    268.89149   -3311.2569    7.3573041 
  283000    2430.5842    11428.276   -4468.9778    271.13533    -3320.515    7.3984481 
  284000    2466.9933    11383.016   -3489.8345    275.19682   -3333.8156    7.4278651 
  285000     2466.309    11272.531    6905.7284    275.12049   -3337.9129    7.5006677 
  286000    2455.2692     11265.78    8329.1586    273.88898   -3336.4844     7.505162 
  287000    2302.3954    11388.357   -2347.8142    256.83567   -3325.5039    7.4243813 
  288000    2299.1008    11387.706   -4271.2281    256.46815   -3324.2224    7.4248058 
  289000    2456.0954    11476.279   -14208.064    273.98114   -3330.5725    7.3675018 
  290000    2427.8336    11382.111   -2994.6835    270.82849   -3332.1564    7.4284558 
  291000    2372.6419    11358.006    2459.5623    264.67178     -3328.05    7.4442209 
  292000    2288.6334    11360.817    1498.5898     255.3005   -3327.2771    7.4423788 
  293000    2487.5119    11514.571   -1046.1855     277.4857   -3298.8206    7.3430012 
  294000    2312.7276    11357.339    5704.2025    257.98825   -3322.5842     7.444658 
  295000    2322.8043    11278.964    7142.8844    259.11232   -3335.9686    7.4963895 
  296000    2352.5995    11382.104   -1134.5072    262.43602   -3324.4741      7.42846 
  297000    2511.1607    11355.991      3233.85    280.12375   -3328.4645    7.4455422 
  298000    2413.1992    11455.377   -5580.7766      269.196   -3320.0587    7.3809448 
  299000    2360.5982    11385.067   -6999.9937    263.32828   -3336.5361    7.4265272 
  300000    2337.5948    11317.444   -1606.6944    260.76222   -3343.1808    7.4709012 
Loop time of 150.131 on 4 procs for 50000 steps with 864 atoms

Performance: 28.775 ns/day, 0.834 hours/ns, 333.042 timesteps/s
103.7% CPU use with 2 MPI tasks x 2 OpenMP threads

MPI task timing breakdown:
Section |  min time  |  avg time  |  max time  |%varavg| %total
---------------------------------------------------------------
Pair    | 87.759     | 88.092     | 88.425     |   3.6 | 58.68
Neigh   | 1.3727     | 1.3762     | 1.3797     |   0.3 |  0.92
Comm    | 7.7486     | 8.2279     | 8.7073     |  16.7 |  5.48
Output  | 0.0016931  | 0.0021452  | 0.0025974  |   1.0 |  0.00
Modify  | 51.969     | 52.109     | 52.249     |   1.9 | 34.71
Other   |            | 0.324      |            |       |  0.22

Nlocal:        432.000 ave         435 max         429 min
Histogram: 1 0 0 0 0 0 0 0 0 1
Nghost:        2395.00 ave        2412 max        2378 min
Histogram: 1 0 0 0 0 0 0 0 0 1
Neighs:        30347.0 ave       31082 max       29612 min
Histogram: 1 0 0 0 0 0 0 0 0 1

Total # of neighbors = 60694
Ave neighs/atom = 70.247685
Neighbor list builds = 985
Dangerous builds = 0

unfix temp
unfix out_file_1
# unfix 1
# # clear
write_data after_heating_$T.in
write_data after_heating_2400.in
System init for write_data ...
Last active /omp style is pair_style eam/alloy/omp
write_restart after_heating_$T.lmp
write_restart after_heating_2400.lmp
System init for write_restart ...
Last active /omp style is pair_style eam/alloy/omp
next loopVar
# # # thermo_modify flush yes
jump in.lmp ensemble



# write_data after_cooling_$T_.in
# write_restart after_cooling_$T.lmp






















Total wall time: 5:24:20
