LAMMPS data file via write_data, version 29 Oct 2020, timestep = 300000

2048 atoms
1 atom types

0.9841305442402941 27.367869455758182 xlo xhi
0.9841305442402941 27.367869455758182 ylo yhi
0.9841305442402941 27.367869455758182 zlo zhi

Masses

1 58.933

Atoms # atomic

35 1 2.768302900256983 4.348402639725527 2.752765694487384 0 0 0
130 1 2.885394346157648 2.4085192912648337 4.177289397423605 0 0 0
165 1 4.60183099734899 4.100646635558338 3.988616679889277 0 0 0
6 1 4.38903429503749 2.4108125227768586 2.487608109050007 0 0 0
4 1 0.9908141131528652 2.013308805912497 2.3497170919646195 0 0 0
624 1 10.523206735673911 13.964044904354237 13.830815644401428 0 0 0
259 1 2.879962462755337 1.1877400383208103 8.738741068406327 0 0 0
134 1 6.5537982935648555 2.184673557859229 4.236662205499043 0 0 0
39 1 6.30885918343065 4.011931024158839 2.6591915017630896 0 0 0
169 1 7.646658490695995 4.296566796596025 4.389131173416452 0 0 0
43 1 8.985222385750662 3.959476890536226 2.3144114784994985 0 0 0
138 1 9.080962781191001 2.432849562139802 3.8439085687307855 0 0 0
10 1 7.801599249900066 2.3208361140258384 2.22967670257301 0 0 0
1289 1 7.348079482145597 14.020947028534437 7.711621011591006 0 0 0
113 1 14.115860762696991 10.987655657012306 1.3258664035803602 0 0 0
129 1 27.338053457848755 1.3036697899784615 4.125871787084256 -1 0 0
16 1 11.141189100864835 2.575736681896349 3.236826919014448 0 0 0
173 1 10.711146869357506 4.3942183758048206 3.980661158909427 0 0 0
47 1 12.703611858594735 3.893383855777614 2.8109489779259795 0 0 0
307 1 13.015260622798218 2.457943744321791 4.8353185330508675 0 0 0
1419 1 10.803183554120503 14.109036119396059 10.341224196758276 0 0 0
481 1 26.919395987449043 10.240258966436881 11.011150105174465 -1 0 0
1408 1 21.937931510030335 0.994091113999618 8.834789768533302 0 1 0
1415 1 6.265479883618448 13.787660568554857 12.78009309451872 0 0 0
126 1 25.80773610831779 13.994107421708172 2.7399009024916965 0 0 0
177 1 14.458556612470955 4.011813433172605 4.333852404122787 0 0 0
611 1 25.574951494310252 12.236671497610637 14.061488804913091 -1 0 0
20 1 14.158295572826715 2.388908438170975 2.7100575379009344 0 0 0
51 1 15.675632431430795 4.005712287359659 2.3674766275285957 0 0 0
146 1 15.775323902803798 1.8693923733493305 4.16878370790908 0 0 0
24 1 17.435677012469736 2.5127177171239934 2.617734461268241 0 0 0
181 1 17.000910527761825 3.717297104638502 4.233286467936516 0 0 0
160 1 26.166280685597908 1.2139067817505342 6.02761809037222 0 0 0
150 1 18.93369324705342 2.8353596649649084 4.507142409619985 0 0 0
55 1 18.670595869388926 4.143759526138659 2.9819806529871085 0 0 0
185 1 20.596035214661597 4.256627577953119 4.152162580673441 0 0 0
154 1 20.245078338048557 2.5484774593670663 2.7081343634602053 0 0 0
155 1 22.62270157725207 2.6362343694640415 4.566217881267918 0 0 0
59 1 22.608818987678337 4.193993662273551 2.6507996740727497 0 0 0
45 1 9.874916331431308 2.193218277356791 1.182561674733645 0 0 0
452 1 27.177481654935015 8.720669447013714 12.597128064374399 -1 0 0
187 1 22.48126244391292 4.258537420497143 5.682745731799022 0 0 0
161 1 27.240792521941863 3.8782760439388975 3.9452232156424407 -1 0 0
32 1 23.761507512037525 2.583501149231006 2.5543514264869476 0 0 0
158 1 25.537668789799437 2.876713896334019 4.270883142936907 0 0 0
36 1 25.23919224855847 4.520646523745114 2.611174945547405 -1 0 0
63 1 23.909296260928453 4.607893931315157 4.284280289494461 0 0 0
101 1 4.065144433943871 10.93526918878254 1.3040345534428548 0 0 0
261 1 4.69928913572323 1.2768389603188268 7.318435997573415 0 0 0
1553 1 13.89419983627634 14.175705004684103 13.827137478655066 0 0 0
40 1 4.184817543762881 6.166567629026735 2.8552195300250984 0 0 0
162 1 2.8559738516534168 6.0635841760156675 4.307349216499336 0 0 0
72 1 2.5357276992155455 7.573310030900501 2.3045791356694925 0 0 0
197 1 4.464616629508596 7.601237420283403 4.274572641721313 0 0 0
194 1 2.561169699045777 9.349195718503191 4.4152413951392955 0 0 0
70 1 4.11308322335821 9.127393962778205 2.485874106943573 0 0 0
68 1 0.9841851035141287 9.340263606485925 2.577681087157683 0 0 0
193 1 1.1559598144694085 7.710883196784979 4.32220111607663 0 0 0
71 1 6.13229506844059 5.658245668003922 4.022216050205853 0 0 0
44 1 7.845465266570121 5.729057480178585 2.7788092898415786 0 0 0
76 1 6.133459651778697 7.469356106054744 2.2872255439199436 0 0 0
170 1 9.316359325383317 6.347020369719433 4.391398947787107 0 0 0
201 1 7.4788258547467485 7.713815684132738 4.128222576900484 0 0 0
198 1 5.867110628186586 8.998147187075125 4.310823762031907 0 0 0
75 1 9.078169813471339 7.82953095542952 2.3284989645408616 0 0 0
107 1 7.585622233803243 9.451420095074068 2.339432923872664 0 0 0
202 1 9.382504034175344 9.231687820599294 4.047042228341958 0 0 0
1051 1 22.619961394693032 14.12235152838948 2.621219590661109 0 0 0
174 1 12.262297211551736 5.755597579723859 4.059308664878988 0 0 0
205 1 10.903088408292298 6.159570490170025 2.6426089987334995 0 0 0
203 1 10.819780786205257 7.796071777156889 4.171865464078805 0 0 0
79 1 12.485573479956768 7.649470298878796 2.9736550831516633 0 0 0
80 1 10.91782583711521 9.385339611766641 2.453098609739384 0 0 0
206 1 12.356857048630477 9.514360498607118 4.291657104900967 0 0 0
84 1 14.031775002023032 9.388139246959911 3.05759836745464 0 0 0
209 1 14.21797612686071 7.313098179696415 4.115146231705846 0 0 0
385 1 1.431394756299667 1.2393852165530377 10.784658181523955 0 0 0
52 1 14.275886560912408 5.821181910390021 2.466621231513583 0 0 0
178 1 16.18237291056081 5.781914962712414 4.142846425286558 0 0 0
56 1 17.134988189639465 5.840593117111712 2.379491846289287 0 0 0
83 1 15.769974471398521 7.732196899563154 2.495410165502445 0 0 0
213 1 17.579525523819203 7.677270165613381 4.263694469363938 0 0 0
210 1 15.837376070954983 9.417066038354324 4.141488561078528 0 0 0
88 1 17.621665409879764 8.944391030465695 2.3157676987383176 0 0 0
1402 1 22.204622582731186 1.2988572503560185 6.139099105908466 0 1 0
285 1 23.940530836703196 1.1786844387992972 7.702085510570002 0 0 0
102 1 5.934536251979006 12.459951792773364 1.144617115178513 0 0 0
182 1 19.02893947189271 5.898943915232623 4.287396825720711 0 0 0
214 1 18.467699922988157 9.45146978189916 4.3148161442429895 0 0 0
60 1 20.54847274048102 5.632518495357893 2.569028241328019 0 0 0
87 1 19.194486491632876 7.393352031384556 2.3867276314325983 0 0 0
217 1 20.47063857447214 7.542599044005191 4.470931881868122 0 0 0
92 1 20.35472258993789 9.15901859404852 2.801239825673023 0 0 0
218 1 22.31677741933088 9.028906350533822 4.215640709779308 0 0 0
186 1 22.33022934659734 6.293237495863172 4.329840913477596 0 0 0
91 1 22.128084843705924 7.575171348320311 2.6447394950097833 0 0 0
513 1 1.0616745528823164 1.2174097794476442 13.730115977406971 0 0 0
1404 1 20.818763672125932 1.0477870226181487 10.590978446413404 0 1 0
82 1 15.699474893989091 9.285331879004785 1.2202391253923701 0 0 0
1433 1 20.838474112010946 14.023359978305685 10.674680115411048 0 0 0
67 1 27.28187573729057 5.653312871979344 2.7217320954642195 -1 0 0
190 1 25.58600459869223 6.111895293920706 4.192470566040633 0 0 0
64 1 23.952254770115132 6.229795990779544 2.5867591901754574 0 0 0
95 1 25.674709839216842 7.674453562790291 2.6482180994736932 0 0 0
221 1 24.06391535766587 7.716405362954604 4.5771363427054865 0 0 0
196 1 25.776712265503285 9.328130430112768 4.0763439362295575 -1 0 0
96 1 23.773078770787627 8.696842957573669 2.7273201861910055 0 0 0
99 1 2.2185633232514492 10.966953580514717 2.5767056714794787 0 0 0
104 1 4.557445980768298 12.453771609504328 2.8068852721222486 0 0 0
226 1 2.52877996277112 13.039538169707422 4.362767353879331 0 0 0
229 1 3.8558441560022056 10.767937977388481 4.012180506086949 0 0 0
100 1 1.439053415241581 12.84795193226223 2.4798502021570883 0 0 0
225 1 1.069121674022142 11.021335118900359 4.238149757289448 0 0 0
537 1 21.119394388293372 1.0806547355337008 14.13461665141282 0 0 0
1435 1 22.14111351045692 13.830575619390372 12.635600194278146 0 0 0
77 1 11.069844557017005 7.638652616100566 1.0196560998745052 0 0 0
230 1 5.75899385789308 12.261361447322576 4.147683679242784 0 0 0
103 1 5.95364734447162 10.616747039253138 2.853163620170909 0 0 0
108 1 7.576870365737923 12.358743914481567 2.499929044487036 0 0 0
233 1 7.319410783360471 10.97330669312664 4.157347093911476 0 0 0
234 1 8.94152688339669 12.635365274386116 4.542656551338258 0 0 0
112 1 9.39193500206824 10.999062741086718 2.4607236984144722 0 0 0
542 1 25.678141051844786 2.509386220914195 13.924455063836827 0 0 0
1305 1 20.82630784150316 14.007173277073951 7.4374625672016 0 0 0
1165 1 10.806160376062838 12.99957295589533 2.8149194375542597 0 0 0
237 1 10.57972242227828 10.96957102451599 4.337128136701439 0 0 0
111 1 12.28896386570409 11.181563268304286 2.7060321836558696 0 0 0
238 1 12.295782255804058 12.91547673321293 4.565078997739928 0 0 0
241 1 13.962821849230831 11.003099719416111 4.4162499139271265 0 0 0
116 1 14.292957216773205 12.931896816445864 2.573321776115031 0 0 0
14 1 12.511512040760964 2.5264142651932784 1.206628914205245 0 0 0
631 1 18.81691574559488 12.668128247006448 14.055744799372592 0 0 0
1437 1 23.72714554378872 13.929136132882574 10.892606024170474 0 0 0
37 1 4.048242626900011 4.729373784044839 1.2384801963482415 0 0 0
30 1 25.548291199726414 2.9836165800973147 1.343164926279263 0 0 0
115 1 16.050908892500455 10.933215240782049 2.8503318918402005 0 0 0
242 1 15.799943917356794 12.80552375102224 4.3939543986786855 0 0 0
120 1 17.483530224518102 12.65739098535395 2.8570145052414433 0 0 0
245 1 17.619443922810536 11.411656428275903 4.573178136016969 0 0 0
1417 1 7.219426787145047 13.991264378663752 10.630503270250149 0 0 0
405 1 17.553029399672905 1.0776839699368876 11.162654490810404 0 0 0
1285 1 3.873597383435502 14.002037314276604 7.59156700712659 0 0 0
1155 1 2.4974592593265728 14.090533786656842 6.089815718892974 0 0 0
119 1 19.034427473522655 10.908537078165443 2.7036825943352882 0 0 0
246 1 19.04559086018415 12.792092297712042 4.1707269044419 0 0 0
124 1 20.774915083353743 12.410119324581508 2.8472095444029053 0 0 0
249 1 20.539456133438758 11.337566482196126 4.527013640606592 0 0 0
123 1 22.10516670267627 10.621256136049887 2.850260103895078 0 0 0
250 1 22.54322949534444 12.48875747678799 4.166405319444721 0 0 0
510 1 25.34357772082973 12.182987427487612 10.893643683537972 0 0 0
222 1 25.96867220296832 11.110318963489814 2.5910779658229943 0 0 0
128 1 24.005595592546825 12.537238832989054 2.7903006081262083 0 0 0
253 1 24.28959086543405 10.615413127567976 4.1402274960588805 0 0 0
254 1 25.533723329683735 12.523885179792465 4.023404613752366 0 0 0
1163 1 8.982066265392014 14.090801756035454 6.258281709543881 0 0 0
94 1 25.50235600235006 9.350987453256991 1.3470858362726732 0 0 0
511 1 25.518166567840094 10.762630019013198 12.497921592485731 0 0 0
163 1 2.64954587087699 4.305622346312937 5.156386906818382 0 0 0
136 1 4.906926041393147 2.7385272701901724 5.8033575497082435 0 0 0
512 1 23.62112552963679 11.901310708266974 12.725111533717577 0 0 0
258 1 2.865371073085597 3.1906452228476843 7.342179028446625 0 0 0
293 1 4.5820247419974915 4.44916417963319 7.438253384621479 0 0 0
264 1 4.027103853400321 3.197599987944059 9.08252057238835 0 0 0
291 1 2.490381138304695 4.5881651875518 8.909272309371913 0 0 0
132 1 1.4177031321269284 2.817876349018052 5.937265463966405 0 0 0
415 1 26.12033700214514 1.0998622574712305 12.101388535728791 0 0 0
1409 1 27.095253434804874 13.69538618535908 10.89374493120963 -1 0 0
167 1 6.09454865156029 4.397222849194355 5.810788005797388 0 0 0
262 1 6.282128612872961 2.530368079297075 7.589368948171884 0 0 0
171 1 9.563563585425054 4.41462008773607 5.871935327030773 0 0 0
140 1 7.922016717226722 2.897000549989243 5.920014265236813 0 0 0
297 1 7.777836519604596 4.372103387043415 7.246471907880312 0 0 0
266 1 8.931485781641898 2.4862443136580428 7.4856509038376275 0 0 0
268 1 7.6254819925564865 2.216533666690936 9.283619613878301 0 0 0
299 1 9.210907676998415 4.245487735524437 9.315543591211048 0 0 0
295 1 6.567543889299245 4.373895557146666 9.318432114855735 0 0 0
8 1 4.449587190000182 1.0082622675988162 4.217333396986438 0 0 0
175 1 12.545752889266101 4.393979788250421 6.067408803269225 0 0 0
142 1 10.890516595133004 2.8130964163470207 5.403605082205951 0 0 0
144 1 11.14856307428819 3.9459784972109437 7.330732509445744 0 0 0
270 1 12.827746595130058 2.3751350487812046 7.588808657809671 0 0 0
272 1 10.904747869581694 2.517136936868515 9.035205874569352 0 0 0
303 1 12.681701311672462 4.187740510657416 8.939971469454292 0 0 0
276 1 14.537949179689527 2.521381669100615 9.411042564090494 0 0 0
46 1 12.85285601500678 5.978934821582549 1.0813356929616937 0 0 0
509 1 23.841195626184025 10.642440112064428 10.93410175384373 0 0 0
1031 1 5.845130189444992 14.15997401531461 2.4021615508251 0 0 0
521 1 9.39170353151254 2.656239444297183 13.923275251236158 0 0 0
147 1 14.953412108621421 2.6958628937269347 6.07336370227827 0 0 0
305 1 14.240877549418848 4.268790677214877 7.536350392196634 0 0 0
152 1 17.471431394487713 2.8353599810379713 5.912795866359828 0 0 0
179 1 15.90225193727284 4.643421623321679 6.374322209087556 0 0 0
274 1 17.46835411274024 4.584830925170429 8.000484019658199 0 0 0
280 1 15.839587283542341 2.657860420675396 7.831882858744167 0 0 0
312 1 15.611063860268562 4.4832112974582525 9.429781546709524 0 0 0
406 1 17.48520853752416 2.445203909842676 9.455319405038054 0 0 0
311 1 18.552999811946766 4.4792450223738784 9.751937438409925 0 0 0
183 1 18.828001598647433 4.56896084119285 6.127371651672616 0 0 0
278 1 18.97100459590743 2.830401179563612 7.7918771847643375 0 0 0
156 1 20.762601443908878 3.1253316752733027 6.032703949584883 0 0 0
313 1 20.56027195401295 4.327950928716263 7.552000266496797 0 0 0
284 1 19.986883688545554 2.680752413623419 9.341024963448824 0 0 0
282 1 22.289677281872844 4.565828746231647 8.978012663213267 0 0 0
277 1 17.10136117612703 1.086700082663893 7.408943644650362 0 0 0
260 1 1.0053309359866383 2.836492719638265 9.04801041840463 0 0 0
281 1 22.476118154856138 2.863280191302322 7.852972408668868 0 0 0
289 1 1.0418649537850142 4.455776713428282 7.630561267493077 0 0 0
191 1 25.962045977909483 4.438090743790308 5.756249570309627 0 0 0
189 1 24.401681909074362 3.090006127820233 6.285453017432579 0 0 0
286 1 26.191315173895315 2.491051201794384 7.632955313592034 0 0 0
317 1 23.795444665946885 4.8094865161559905 7.587331443472156 0 0 0
445 1 25.694393449321243 4.446325234645826 8.935865403764623 0 0 0
288 1 24.198275955146237 2.9299170456419805 8.810611305641288 0 0 0
168 1 4.557396670579213 5.638785018123112 5.680236929172495 0 0 0
290 1 2.8231240940200957 6.094989293298881 7.49448737235042 0 0 0
200 1 4.151848605387192 9.593234348560006 5.894878314086371 0 0 0
195 1 2.879754489792764 7.543651927059184 5.711034666006772 0 0 0
325 1 4.457152666905545 7.651928957175963 7.290905617964556 0 0 0
323 1 3.1949250593353997 7.4915448009386205 9.250044526922217 0 0 0
328 1 4.579300373534412 9.311433244076737 9.273181365630409 0 0 0
322 1 2.802709919482907 9.329938418924744 7.357528670745 0 0 0
296 1 4.355169845489158 5.908179279882586 9.303275085290304 0 0 0
318 1 1.1342739178518666 7.3302581023352635 7.384796407191542 1 0 0
292 1 1.1042960885250523 6.080016456601392 9.191002315193973 0 0 0
321 1 1.0359362690457226 8.953283250900322 6.1713498601295615 0 0 0
164 1 1.1980434998058085 5.7989389971610015 5.47047353928687 0 0 0
326 1 6.059135832658001 9.084027370199063 7.400528419463552 0 0 0
166 1 7.883415094781174 5.734147867928526 6.061817933181954 0 0 0
294 1 6.249228611877909 6.150003371680598 7.868165756588363 0 0 0
204 1 7.625414015208272 9.290939758763638 5.775206246206408 0 0 0
172 1 9.143340898519073 7.62922370348576 5.906434872042836 0 0 0
298 1 9.385235920479285 5.989391829250706 7.886036701440742 0 0 0
199 1 6.11460870296177 7.168654261802456 5.635626314499966 0 0 0
329 1 7.960389211223743 7.731026799264522 7.466680989160195 0 0 0
300 1 7.928902454546515 6.1415352141888615 9.289385576315421 0 0 0
330 1 9.574194386682706 9.141660679655754 7.260065218147826 0 0 0
331 1 9.38133651381857 7.764915094855153 9.051617369164834 0 0 0
332 1 7.3032442445613395 9.531972321708498 8.985976386106131 0 0 0
327 1 6.047393180508113 7.658762768168545 9.196897051317476 0 0 0
302 1 12.920856054316406 6.090385049686778 7.732991007339538 0 0 0
176 1 11.07838195115498 6.008066781725957 5.938503390944268 0 0 0
207 1 12.734652498385243 7.353770268710994 5.912352645978102 0 0 0
333 1 10.81120443881395 7.425000173638611 7.278663274768358 0 0 0
334 1 12.653136641129224 9.121352648123608 7.512370004505045 0 0 0
336 1 11.086214270657006 9.11063873525233 9.075260064942535 0 0 0
335 1 12.365381957944951 7.658841401295126 9.216610014190604 0 0 0
301 1 11.111487563643184 5.941613848342489 8.947560450528602 0 0 0
208 1 11.284839733023828 9.075291181039256 5.924244313484181 0 0 0
340 1 14.292300191041154 9.334681627500714 9.76222115515236 0 0 0
180 1 14.05151881401658 5.717725809869333 5.476542784425102 0 0 0
308 1 14.318701960771108 6.178027884873801 9.312931280273759 0 0 0
212 1 14.140695850281304 9.176350319329092 5.999979269929256 0 0 0
337 1 14.27572072421991 8.015242461698067 7.675628513591302 0 0 0
306 1 15.313578373169365 6.1533284719031185 7.5973906786546594 0 0 0
216 1 17.22715880924728 9.319302807444394 5.9590959169191855 0 0 0
211 1 15.593595826062783 7.583855671052071 5.728586691117647 0 0 0
309 1 17.67531341522618 6.220994699222954 9.570364596936255 0 0 0
184 1 17.245361427519924 6.299577887004075 6.142575376083485 0 0 0
341 1 17.385490131946906 7.812877825295913 7.788064215193276 0 0 0
338 1 15.821530942838464 9.620068546888696 7.729143189006296 0 0 0
339 1 15.837820142038918 7.754658537112806 9.504232179088305 0 0 0
344 1 17.58700925119649 9.386349370206219 9.493996327265732 0 0 0
188 1 20.89113337316243 5.749872784863732 5.68637708063482 0 0 0
314 1 21.77254524460749 5.868426072841203 7.470549620547068 0 0 0
219 1 22.247425487294752 7.470624045765805 5.97159990308804 0 0 0
220 1 20.627196990090923 9.469468261540891 5.569111498204034 0 0 0
310 1 19.215340708407695 6.185324173897363 7.447994136667547 0 0 0
215 1 19.042244907521408 7.786929246504416 5.935121492807492 0 0 0
345 1 20.403479583449684 7.703496328470734 7.723799976369389 0 0 0
316 1 20.045346183796816 6.318149373813645 9.34312561241558 0 0 0
347 1 22.115042267673534 7.480369224691286 8.926845171779311 0 0 0
343 1 19.09795671805616 8.119191664987852 9.440538550735438 0 0 0
346 1 22.127179478698817 9.253652952070613 7.27452325836268 0 0 0
342 1 19.068438651338003 9.214100626084234 7.369299314606739 0 0 0
348 1 20.717504933365813 9.28969608267705 8.811544256207053 0 0 0
324 1 1.3192692206429013 8.880868702296155 9.04001406338235 0 0 0
319 1 25.852694207940637 6.046547599935464 7.0943541435280455 0 0 0
192 1 23.943313847999782 6.148436209151634 6.016443610999253 0 0 0
224 1 23.779482302516058 9.248778537652226 5.9370817255183335 0 0 0
223 1 25.71003325134929 7.864944822087364 5.8025448145080825 0 0 0
349 1 23.668344892584088 7.762318679412313 7.650596600959632 0 0 0
350 1 25.651667037650583 8.89707399462641 7.745243699262204 0 0 0
351 1 25.86020451525938 7.502806860014004 9.284070547935366 0 0 0
320 1 24.28654632876459 6.139745163019908 8.850493251884071 0 0 0
352 1 23.724463390113456 9.09570212923973 9.39278808440321 0 0 0
1179 1 22.66011751544545 13.652366686272769 5.883247979467193 0 0 0
1423 1 12.17099304933678 14.033764601488027 12.045052125041275 0 0 0
227 1 2.5394364498591786 11.321372699320792 6.095756297909556 0 0 0
232 1 4.223251897848096 12.382013213664335 5.605603188247762 0 0 0
354 1 2.43191639589042 12.388811608517875 7.899303643322827 0 0 0
357 1 4.548235009328232 10.78211933189652 7.758347794440872 0 0 0
355 1 2.677644151288632 10.480455139934728 9.236488477384148 0 0 0
360 1 4.186709118750267 12.73427235144479 9.388719735852087 0 0 0
353 1 27.027178967623165 10.809480708810554 7.712441993728667 -1 0 0
228 1 27.082573108690045 12.290352529788125 5.925024832803464 -1 0 0
287 1 25.662229864880835 1.167902931957876 9.012003064817362 0 0 0
231 1 6.091989482027564 10.874825382083811 6.053130848065237 0 0 0
358 1 5.360234009396356 12.783088123619992 7.644718533762207 0 0 0
236 1 7.400747496109038 12.460513495413585 5.957137259993433 0 0 0
361 1 7.400625159487627 10.935490277724805 7.676910144588745 0 0 0
364 1 7.284916194813715 12.467347258979615 9.408276944126074 0 0 0
363 1 9.112188242528546 10.831107995453719 9.118636239857842 0 0 0
359 1 5.712801288583365 11.055557663844306 9.269717517633083 0 0 0
235 1 8.885050145097647 10.753338120256318 5.789286095399838 0 0 0
362 1 8.834556430082571 12.358870650999538 7.536447395145127 0 0 0
514 1 5.636841649613345 3.0569650800389865 14.157045346671863 0 0 0
407 1 19.471314226710717 1.0811065055922227 12.476374465806586 0 0 0
610 1 2.468059458084733 12.349501500712162 14.090208764408548 0 0 0
239 1 12.415137004448995 11.032688841357379 5.8856151567124675 0 0 0
240 1 10.600800388698627 12.420300014348344 6.15215108045578 0 0 0
365 1 11.076812223714473 10.850673267564948 7.707486662784123 0 0 0
366 1 12.471255436425764 12.747923805923755 7.663922216554926 0 0 0
368 1 10.774516400035745 12.618170901942053 8.51054485145465 0 0 0
367 1 12.961355753694926 10.780314606477475 8.902875447301565 0 0 0
372 1 13.898175570202502 12.584474210387564 9.460491193560323 0 0 0
244 1 14.053638173188917 12.539560024075021 5.9328719196001005 0 0 0
369 1 14.214135585711551 10.79110124958552 7.316187601015551 0 0 0
389 1 4.0414954869638064 1.416558487931527 10.546188317727303 0 0 0
1411 1 2.422082136317676 14.147666257301081 9.386049230636253 0 0 0
33 1 1.0420345457336921 4.156393075005611 1.2353290828297703 0 0 0
413 1 23.80351550262687 1.3823689809217248 10.357552583270168 0 0 0
1425 1 14.18236232187409 14.111384688174484 10.884150640421502 0 0 0
376 1 17.876098602779305 12.516648724849992 9.361079803272164 0 0 0
1044 1 15.590401560671623 12.50542495673634 7.644634208430106 0 0 0
243 1 15.796335682975755 10.787604314102726 6.046826305446819 0 0 0
248 1 17.574630485859796 12.92571068120009 6.190313563850477 0 0 0
373 1 17.505653100349548 11.204791214228921 7.844031271766986 0 0 0
371 1 15.762776420587945 11.214329028727285 9.346598783887183 0 0 0
590 1 12.89947633969327 9.429696892038786 14.164333643645161 0 0 0
252 1 20.335985382509353 12.903348091483457 5.968655596562775 0 0 0
247 1 18.96619201899524 11.013999708384983 6.211782359849708 0 0 0
375 1 19.066286033241333 10.809613550366777 9.214528196627546 0 0 0
379 1 22.379225023369237 10.77442106401941 9.013269405245943 0 0 0
374 1 19.310307054003342 12.563555180007983 7.616575365155673 0 0 0
377 1 20.686541160256795 11.032441060115808 7.460507492571337 0 0 0
378 1 22.49211249624602 12.489732765870915 7.589278108529887 0 0 0
251 1 22.42177031086571 11.015947823525162 6.018425136573543 0 0 0
380 1 20.876584097959913 12.22486475058252 9.348668330908593 0 0 0
507 1 22.329865110667818 10.324263163384 12.566511744198207 0 0 0
139 1 10.890813647838831 1.0280357160100029 7.199702998437764 0 0 0
356 1 27.101851420445428 11.949182336490093 9.455806374118854 -1 0 0
255 1 26.0162890068912 10.428686974664958 5.994415626093787 0 0 0
384 1 24.084851727456677 12.294186324648049 9.22817558785772 0 0 0
383 1 25.348525168279327 10.25728243857313 9.581864363917573 0 0 0
256 1 24.190375203487633 12.118013963806002 5.92006642951837 0 0 0
381 1 23.958278764597843 10.516880217259143 7.510491558865266 0 0 0
382 1 25.675457487905227 12.447479490241795 7.549659481351923 0 0 0
392 1 2.4446003446495284 2.8934174067184326 11.046621132424518 0 0 0
419 1 2.782801378692464 3.8664572827720143 12.774614581344462 0 0 0
421 1 4.459191158958198 4.169268189604981 10.717669032443618 0 0 0
518 1 4.542569819662228 2.5421292501935495 12.318100562174928 0 0 0
565 1 17.265771841504698 4.370670731922315 13.628895910553753 0 0 0
1538 1 2.31298589507613 13.786945818341312 12.362890407510767 0 0 0
1309 1 24.19172341125655 13.960679959472232 7.6027131549964295 0 0 0
423 1 5.843079917049947 4.398182163090276 12.446706662304807 0 0 0
390 1 5.847309352392919 2.5870448426688024 10.54625490340195 0 0 0
396 1 7.335662154879757 2.8695004537740427 12.787109084401182 0 0 0
425 1 7.8033914741359895 3.785136173403979 10.66546360180617 0 0 0
394 1 9.288531069020104 2.474186892505956 11.080628481234207 0 0 0
427 1 9.32175588198651 4.356325352981522 12.246656373484866 0 0 0
530 1 15.730735429720587 2.7236874671423053 14.052381963223572 0 0 0
400 1 11.07827547863038 2.4789257254571204 12.220081573185169 0 0 0
429 1 10.921332319874516 4.214091841158744 10.54982734560692 0 0 0
398 1 12.531164680865267 2.9137915549810898 10.667720903419205 0 0 0
431 1 12.3995962020655 4.318350748833948 12.776751510366536 0 0 0
433 1 13.888781576589555 4.391753207914473 10.837429303761873 0 0 0
404 1 13.71057435568332 2.808869337893343 12.607350498784424 0 0 0
81 1 14.031626178777847 7.904885361898976 1.2417631235183024 0 0 0
2 1 2.644271116455684 2.500198919151628 1.2000641279282998 0 0 0
499 1 15.783940279161648 11.16293842934298 12.653099618443402 0 0 0
1047 1 19.00901441648329 14.092217486107103 2.333619533941715 0 0 0
27 1 22.22075289246527 1.1770818260460556 2.8624605775866314 0 0 0
1386 1 9.542158125100052 1.13161673591719 8.94104899823807 0 1 0
501 1 17.590363752417076 10.937875887756048 11.054344845383305 0 0 0
402 1 15.740727605240723 2.221103388509538 11.25658988495014 0 0 0
435 1 15.109803721535817 4.3109139904520255 12.890266318343436 0 0 0
408 1 17.561914089388104 2.5184564696062095 12.719113517133373 0 0 0
437 1 17.03386809975697 4.232484256791155 11.337907997129355 0 0 0
503 1 19.028404489917182 10.801190520829785 12.690501041320063 0 0 0
529 1 14.149175082230068 1.1484090634515716 14.14632636511635 0 0 0
412 1 18.973580564403832 2.904792350307991 11.313459576764284 0 0 0
439 1 19.297506619501675 4.287313497546926 12.860212300684775 0 0 0
538 1 21.140643328754297 2.701028050145566 12.55670014687576 0 0 0
441 1 20.574145837682206 4.475848643094373 10.803970066877849 0 0 0
410 1 22.31541356527419 2.918193713683825 10.16583517623876 0 0 0
443 1 22.200411861216647 4.345468116266357 12.084150825712884 0 0 0
498 1 15.855780912040746 12.604349879699711 10.812887439052606 0 0 0
502 1 19.287887941946835 12.15128560700374 11.050727803600683 0 0 0
505 1 20.88234653191827 10.736576532720711 11.17961336984265 0 0 0
90 1 22.33141153573905 9.03915508680221 1.1066069960987308 0 0 0
388 1 27.245168202849392 3.112942804480911 12.506772656719832 -1 0 0
417 1 26.967106143847495 4.200863365677823 10.571440502186446 -1 0 0
386 1 25.636465247269292 2.7169423530671306 10.761676480238995 -1 0 0
315 1 24.182050157619063 4.292615169149615 10.63163556553162 0 0 0
414 1 23.89826439923912 2.8952343048101365 12.40680881181942 0 0 0
447 1 25.74560226068319 4.5036711775071545 12.839830911751413 0 0 0
424 1 4.428240893172694 6.059484330470003 12.320691233888393 0 0 0
418 1 2.7168522127706343 5.842373986465716 10.916653868416835 0 0 0
451 1 2.717862021989953 7.5392563181193495 12.367547671024763 0 0 0
453 1 4.499076999651683 7.631898028747064 10.806607879124487 0 0 0
456 1 4.2970987252109625 9.20630502488354 12.767060000142227 0 0 0
450 1 2.7829417787901933 9.017368741313486 10.856873946046276 0 0 0
1311 1 25.421029160881464 14.066478953161617 9.804804092318761 0 0 0
617 1 7.8701801647408205 10.87968217732964 13.84875454850836 0 0 0
1281 1 27.11646266759981 14.01329408763493 7.629315673863345 -1 0 0
455 1 6.280528121978882 7.360791182700121 12.695991654758602 0 0 0
426 1 9.663541757992906 6.281100202927699 10.861430290985318 0 0 0
460 1 7.6703184686960295 9.063993492994419 12.302771191119431 0 0 0
461 1 7.75929625144511 5.718005746808378 11.80887659160035 0 0 0
422 1 6.152894631804701 6.097403723323045 10.708163203644917 0 0 0
457 1 7.518265372024164 7.846218667494982 10.649156014445406 0 0 0
454 1 5.897228405356614 9.336051617838832 11.04889491913629 0 0 0
458 1 9.401445167006772 9.207630890013714 10.807881825640184 0 0 0
459 1 9.107499961560846 7.348498734603662 12.553300478107955 0 0 0
34 1 2.373958454550617 5.79164727725609 1.336355947903751 0 0 0
629 1 17.432567125246315 13.014743755381113 12.406863865717167 0 0 0
430 1 12.341163593213468 5.743290099769073 10.468411791232418 0 0 0
432 1 10.969968748183547 5.80387826441554 12.617219492205876 0 0 0
462 1 12.500976331274083 9.426633525130024 10.981533831712376 0 0 0
464 1 11.289022369264943 9.209503716954236 12.796669742792224 0 0 0
304 1 11.157086957003719 7.76928217849391 11.091957134835198 0 0 0
463 1 12.986334330822226 7.47988162899674 13.118117522052922 0 0 0
436 1 13.776234936665853 5.863613612637097 12.173151555843424 0 0 0
1039 1 12.371957216323734 14.061476769281608 2.427485816039949 0 0 0
468 1 14.263694976266496 9.191763043843142 12.51624593075058 0 0 0
465 1 13.957660520799545 7.577531097854325 10.984532304009504 0 0 0
434 1 15.685079610870822 5.946375058775118 10.892938977027647 0 0 0
472 1 17.676182834774586 9.157990830839672 12.62741442328375 0 0 0
440 1 16.76707533481436 5.858416775574137 12.720087067540309 0 0 0
466 1 16.052243258569746 9.490417423338494 11.304532892656267 0 0 0
467 1 15.9220580973437 7.706361010709904 12.182900794738048 0 0 0
469 1 17.617001187431217 7.743552649538711 10.781834326247315 0 0 0
438 1 18.49502717970817 5.8932051532091 11.702440798547743 0 0 0
470 1 19.294829598656914 9.32203343183003 11.270264728658045 0 0 0
476 1 21.072986177697302 8.642185435152074 12.647845129469609 0 0 0
474 1 21.953821933597247 8.959440834942196 10.721464562780069 0 0 0
475 1 22.643626289152344 7.202133718436361 12.702428098262214 0 0 0
473 1 20.403230924595736 7.377177678406803 11.078174375172287 0 0 0
471 1 19.032875655975918 7.4948823466246495 12.586348858502928 0 0 0
444 1 20.964837885101733 6.099476887288139 12.945222041067478 0 0 0
442 1 22.06492529930237 5.973643211402008 10.505177452384975 0 0 0
1299 1 15.74959295128884 14.092618994739313 9.038948124980623 0 0 0
48 1 11.141530143563148 4.08966873323306 1.067344355603335 0 0 0