LAMMPS data file via write_data, version 29 Oct 2020, timestep = 300000

2048 atoms
1 atom types

0.8504568878278036 27.501543112167838 xlo xhi
0.8504568878278036 27.501543112167838 ylo yhi
0.8504568878278036 27.501543112167838 zlo zhi

Masses

1 58.933

Atoms # atomic

1740 1 2.7925480315573665 2.7993594339689913 2.096476519473969 0 1 0
1646 1 1.0932177494907562 3.7167938005387384 3.6421547443399516 2 0 -1
946 1 16.96355969245278 5.778392257915138 13.606536252549855 -3 0 0
1857 1 5.101166059324783 3.9226798983225786 2.6239402145424426 0 0 0
1725 1 2.2270496882063284 5.029240332854075 5.177936461860322 0 0 1
1441 1 5.031324007115525 2.214230300670472 1.5566398049766383 0 0 1
9 1 3.7989667266728584 7.893413645959191 13.457615031448038 -2 3 0
1809 1 3.5094231091644765 3.571154493753704 4.190595772297822 0 0 1
1060 1 27.19188098173215 6.80052732017291 1.4264949929564854 -1 -2 0
1177 1 6.822673186606956 2.9112180962672136 2.8251057140083558 1 2 2
1560 1 16.97747400418203 2.3305759792711243 1.4247275262560986 0 2 1
1349 1 12.648892776009427 13.273942300456458 2.6798787836978883 -3 1 1
139 1 8.251721824371492 5.293929873264544 3.59992735948182 -1 -2 -1
676 1 8.60355006268777 3.8547052405344697 1.4782208117503686 1 3 1
88 1 23.577202487347627 1.643593785215678 14.170059356788906 0 2 -2
1804 1 10.264599982684977 3.6677842665073133 2.9248947363769395 -2 -2 1
1711 1 11.06615796205088 2.8225856224501236 4.954238445511617 1 -1 0
5 1 8.915422282445416 1.5963657891913487 3.9520691719994967 -1 2 1
301 1 4.769867312922232 6.0529706407158725 13.231482601852058 1 1 -2
1153 1 7.067806312911998 1.2107652167546739 5.435891969111032 1 -2 -2
1151 1 9.363128988967546 8.614845499059719 5.204340270185927 2 3 -1
1703 1 13.671610490532885 1.613754712859596 3.049171091274809 0 0 0
698 1 12.39145930199883 5.535895153685423 2.017643261419191 2 1 -2
736 1 11.463534032599343 1.9732509181181528 3.163893381424076 0 2 1
807 1 15.742581699906165 2.760381773819333 2.9957515693127097 -3 1 2
812 1 14.30910715996287 3.248822774743298 0.8667852272948612 0 -1 0
1181 1 9.322130495823743 13.876221460241906 5.579411665393531 0 0 -1
229 1 8.434949919627527 12.565877885191524 1.4452651609924219 -2 1 2
414 1 15.486059518655725 1.5261399712965193 4.281621452535899 -2 -1 -2
1961 1 25.782414072384874 1.3447718591163482 8.751704079000174 -2 -2 -1
51 1 14.295593723579216 1.634572307934354 13.976877012346714 0 0 -3
1106 1 17.898302064318656 1.7076373287695026 4.403927825818371 -1 2 -2
434 1 20.13318075446441 1.7271754647015123 3.303709492088809 0 1 2
263 1 13.730644967131942 13.759885623865747 12.191974329648456 1 1 -2
361 1 18.861622354547777 2.763262382526544 2.105388500122697 -1 1 0
1998 1 15.924371832734696 6.630015340687763 2.061333584168813 0 0 -1
1407 1 1.3606633498070533 5.015603675040927 1.9221349170342492 -1 -1 1
1639 1 5.160483291310207 1.8240347060299258 3.729913853693859 -2 -2 0
1462 1 20.652959241888475 4.126249706511161 3.757169951876434 1 0 -1
1291 1 18.119150341938767 3.812495127287561 4.342042522833864 0 -1 4
1442 1 18.86518602118601 5.5393760057411345 3.4566501884305962 0 0 -1
438 1 6.7718039457020796 3.2320737376092565 11.319750370074026 2 1 1
1898 1 23.62429480953957 3.668946746991943 3.7626067393574822 -2 2 0
827 1 13.135209026755783 5.911225603232004 13.04498052948982 1 1 1
1965 1 2.477290400526138 1.8036216065984978 10.861743297998393 0 0 0
1972 1 20.584472600419673 1.5896779445708615 1.296860068086379 0 2 1
1684 1 20.392494410745027 5.041798371112011 1.4338831118893292 -2 1 1
161 1 21.982173527540407 2.8627135341318763 2.404097612669359 0 -1 -1
332 1 26.76356336725849 3.194594659843785 1.9927480435706812 -2 1 -4
677 1 12.480619224343307 1.625142786802079 13.197624834873645 -4 1 1
2020 1 22.198645590070758 4.898740176787801 1.9090329549612635 0 1 1
645 1 1.7618687034801344 9.182107538879984 13.917436840875705 -1 0 0
758 1 2.3430792951996287 1.6645402821859472 5.144525303379899 0 -2 4
1071 1 25.651235151759824 4.387945851447397 3.5612832402551162 1 -1 -1
1015 1 24.70887667153408 4.05807133570117 5.738348720576121 2 0 0
514 1 27.347971465497526 3.2404664431372634 5.671725777058667 -1 -2 1
1866 1 26.157207026192534 2.113728075568347 3.8164561798034593 0 4 0
1841 1 3.611289201330505 6.450322376532073 4.144191781561069 2 2 0
1814 1 2.834333431044588 7.3126706109752515 5.884359871517535 2 0 2
1363 1 1.554938109013487 6.596873897337707 3.6239829094867613 1 3 -1
1028 1 2.7874341074428837 4.7963364176434915 3.113666333852718 0 -2 -1
125 1 4.699111953962486 9.019166759673 2.048459870246307 1 -1 1
1598 1 24.772791423316864 1.7748182168551194 0.9299400145155705 0 1 2
1170 1 3.3531712792976536 10.661971856784962 2.8875160683867147 0 2 1
1198 1 24.444874756649067 3.4840126421949758 1.7488864233383545 -3 -1 2
1311 1 6.142367291870878 5.8865254231575355 4.345740026000699 1 2 3
1323 1 7.76398158633707 7.763655233764725 3.6329261756273494 0 3 0
1641 1 24.90802413011855 1.672996438129068 10.882019229484584 0 1 0
342 1 9.667293155835331 6.895412114051049 3.6014828991238907 0 1 -1
657 1 25.27917144379866 6.304371485667247 13.592933777948979 -2 0 -2
1223 1 6.108718850850519 9.072419122743563 3.6297103834793933 -1 0 1
778 1 4.928931585808047 7.792045443214006 4.973185296924117 -1 -1 3
93 1 5.733916044039697 7.221067510002051 2.879696432634071 4 -1 -3
611 1 8.494676393891371 6.322906857046812 5.133885984270657 -1 -1 0
1521 1 6.58092266451972 5.518246674663723 2.458585400982426 0 1 -2
747 1 10.936240476518364 7.223115686606986 2.059006775646785 3 1 2
1116 1 11.840585314271552 11.030999365756044 1.4772596800433162 -1 1 -1
584 1 4.632965942428767 0.9660573486569045 11.836877351445336 0 -1 0
1489 1 9.54607292163177 8.831184298729115 2.3090475586169816 1 2 0
636 1 11.299797443606968 5.6632830146828965 3.7426249346766007 2 1 0
1220 1 9.133399168467905 6.790427797550538 14.107466514321228 2 4 0
1297 1 21.77708240707831 7.377891282868702 11.888961155419974 -2 0 0
918 1 12.140924143164092 8.813825358138567 2.195046262385951 -2 -1 0
133 1 22.33683264869025 13.247708339296185 13.125619020275733 -3 1 -1
2021 1 13.471805739697679 6.650708081147765 3.4494114810970364 -3 1 2
1624 1 14.617641151159509 4.43767646574322 3.5641791695145617 -1 1 4
1512 1 13.852216978783286 8.76153333600118 3.3309058233150615 -2 -1 1
274 1 11.562732241447284 8.276791719517949 4.15757427991391 -2 -1 0
649 1 3.9343160741791423 1.1110518725611174 8.490776792030518 0 0 1
1261 1 17.156830152738618 8.460749140924836 1.8753505599777174 1 1 0
996 1 14.083297636164236 11.6304250684645 11.886834647565221 2 0 -2
1541 1 15.270058592858343 8.227644591203017 0.9387503804533623 0 1 0
1640 1 17.3197533032398 4.248898329298532 2.323308825639097 -2 0 -1
203 1 15.562384402945797 7.670055684598835 3.6006441747101396 -2 2 -1
1947 1 19.300104044422458 11.18338124873367 3.339758373170775 -3 3 3
1426 1 18.154434787815106 6.299857860893215 1.3667610947935809 1 2 -2
1296 1 19.38504426276278 10.791212078169961 1.439757037653835 0 -1 1
893 1 23.260637178546315 7.329648330324091 2.482182220494444 -1 2 0
947 1 21.61296316593854 6.161224068196532 3.308092194297249 2 2 1
375 1 23.67607931523025 10.108432064978327 3.6181983109390727 0 -3 -1
379 1 22.013290830593526 5.080242758685535 5.138642276879347 -1 0 0
1086 1 22.365406725524476 8.491985481627877 3.86775130456657 1 -2 -3
1496 1 20.179817223048605 7.064207121491167 2.5023940253918644 -3 1 0
1731 1 22.939479026902994 9.256339369795716 1.5844919405290812 -1 -1 1
1369 1 6.8422578093513 14.030950586554626 2.2778659766824667 2 1 1
1345 1 2.112699376622487 3.2266402749902543 12.374316603509339 2 1 -1
1460 1 25.837986089087877 7.19472872962145 3.472244728336716 -2 -1 1
173 1 1.8776948785237209 8.779012788711231 1.903792500862576 -1 0 -1
1464 1 22.054037602492336 2.194764983236388 4.525725977383365 0 3 1
937 1 24.093608727171286 5.97580560598975 4.149067330908026 0 -2 3
785 1 25.478958002025355 9.19156453889919 2.724827118612926 -2 1 0
53 1 26.830271723221525 5.430468641139029 4.810139778370265 0 3 -1
767 1 2.346740772155237 10.070476697497647 4.854707895874711 0 -4 -3
1950 1 1.7095304864202336 11.505692492838337 3.1661919618927614 -1 2 1
1259 1 2.8845181895420002 12.35044817323243 4.87137967553523 0 0 -1
138 1 7.145358657194007 14.082951394571944 5.106709877331934 0 -4 1
928 1 4.562470434482354 13.665082365431157 9.190212340749603 2 1 2
401 1 26.388838999302106 11.492040855237299 4.30198702628498 -2 -1 -1
1936 1 4.00117074920285 12.418599988751087 1.753876833066031 1 0 0
95 1 26.866224379611634 10.679973505136916 2.009035434525386 -1 -1 -1
1504 1 1.7330970342349779 13.341315357217958 1.245306619218805 -2 0 3
1021 1 10.212104958048164 11.343511127993514 2.6097993768011296 0 -1 4
1250 1 9.043236511017671 13.834915914861819 13.345163593173893 -3 0 0
1427 1 6.061136836801573 11.098904159529715 2.9373252411750608 1 0 0
1383 1 3.3005462655668283 8.524003601901214 3.9203143782830043 3 -2 3
1421 1 5.070036443550188 12.821753515448135 5.46299611734869 0 0 -1
198 1 26.813717961715128 1.2086607988740241 5.964036507554159 2 0 2
1742 1 7.469232172008257 11.891141979242787 4.485870260838854 1 1 -1
945 1 4.315029918065355 10.68743820603127 4.493899652754125 0 -1 1
1371 1 6.69398506220778 2.323229413006311 13.049170968560784 -1 -1 2
583 1 9.479887615805676 11.246117671109891 5.845160603655108 -3 1 0
299 1 11.386845818475868 10.704568758712474 7.881527112961713 -3 -1 0
1836 1 11.062608638279983 12.942962189600896 4.069834016724236 3 0 1
1402 1 10.911591025825711 5.047312789126806 13.775218237965625 1 4 1
429 1 8.865558824306865 13.39961713307165 3.3321554309085415 -1 -2 1
518 1 10.578476545527709 12.586307663215138 7.280127112602028 2 0 1
1294 1 24.104265187704122 0.8998173501176814 3.445130192293311 1 1 0
308 1 12.003737056347296 11.64017316283081 6.150126303174673 -2 1 0
410 1 25.40955699924584 1.0992691626475173 12.77043899880472 -4 -1 -1
1046 1 12.785395150650857 1.5099207472380474 10.848812475244708 2 1 0
176 1 13.810292165756032 11.313222275946147 2.8939206619521407 -2 1 0
989 1 12.231299892567339 10.668327919528554 3.7947362060946146 0 1 1
70 1 13.61008000525609 1.8403137435867192 8.907445870748125 -2 1 0
1391 1 11.618728119126018 9.683251032187147 5.863790681250147 1 -1 0
498 1 14.448524049817633 12.438107228759732 5.559351948898398 -2 3 1
118 1 16.123459980730864 12.005361752282129 4.022612442604129 0 -2 -2
702 1 24.316942497298857 13.387035805283102 12.82873591505511 1 1 0
1689 1 15.5031337673461 1.674008955093631 12.265401679268798 -1 -2 2
829 1 17.504301658141287 10.745253066467807 2.828255421875213 -2 -1 4
1673 1 17.42419079401583 12.941404258792357 2.4823356347457537 -2 0 -1
1018 1 15.628486430222388 10.246483172332715 1.6064705081319546 1 0 0
1455 1 15.513322736269847 10.022930860591627 3.863304872160224 1 0 0
1185 1 17.156206615620285 8.814257440306132 4.176380934931938 -1 -1 0
1319 1 22.16452601071926 11.469533936686625 5.003625096168672 -2 3 -1
389 1 19.98015982146797 13.633631818193896 2.402037069722051 1 0 -1
1928 1 23.596643660452102 12.485385420564086 3.9466935726388153 -1 -1 1
363 1 11.469709611500175 12.836258756360062 13.318721797561283 0 2 -3
1515 1 9.815884636479446 3.9608710245194936 7.378718631600874 2 3 -2
1771 1 21.920049640135076 7.1450677203359865 1.1639288165164146 -1 4 3
1566 1 11.094789193301953 8.028918597235702 12.793367767006096 1 0 2
806 1 24.56871176588225 8.309057659292698 4.932960115131684 1 0 -2
693 1 20.963288334132077 10.092170266054135 3.6725527742507484 -1 1 0
2016 1 26.971069821456624 13.893347509820357 12.112012773108969 1 1 1
473 1 18.136004735386706 7.9592430753783034 14.008478525218791 -2 1 0
1817 1 0.9144102044711467 11.095239512681799 6.391255725945398 1 0 0
1222 1 24.880598364308558 11.255368158957712 2.4594363871165825 -3 0 -1
285 1 25.104391815404327 13.350255896353545 2.619665019091527 0 1 -1
1437 1 16.0413078031076 12.167887033442042 11.014360928891538 0 2 2
1633 1 22.578510757903732 13.303347495531598 1.765744868898032 0 -2 -1
1419 1 15.187469423578957 1.461852516435873 1.3222414837627623 0 -1 -1
1070 1 2.1153834920539194 4.067856155034584 8.018370245915293 0 4 1
1039 1 4.9050279754951545 1.993805261346317 6.003369523144986 -2 -1 0
295 1 1.9492907152696897 1.2513794975748829 7.524115565801645 2 0 0
766 1 3.2180759614478087 2.7009769513641797 8.950945891738293 0 -2 2
1268 1 5.261580065351504 12.489880799553402 11.454616067875786 -2 4 -1
402 1 27.432058761859544 2.5134239468011614 9.587510844123694 -1 -2 2
106 1 5.86283019175358 4.375244246667163 9.672587078219292 -1 0 1
1212 1 3.2615995497911983 3.389086760580121 5.975325561066037 2 0 2
54 1 4.574079988296688 2.778143508202783 10.677490139738829 0 0 -3
223 1 4.441661331229048 5.434315905297645 5.880327182407639 -2 1 2
1879 1 9.305027803296465 2.0409389485339937 6.109360402427682 -1 1 0
257 1 5.298217497117364 2.3132740083931216 8.406215125735308 2 3 1
56 1 4.611933748034296 4.1977691830934365 7.4395903811534865 1 0 1
834 1 7.151551663200155 4.086806467794558 6.196931360359505 0 1 1
1242 1 5.677155323181026 3.5965007916791603 4.702949991379261 1 0 2
1119 1 6.550155855236491 1.7695651517404969 9.808265324933046 2 1 -2
617 1 25.691154616440613 12.496676840520896 9.97671829110594 0 -1 -1
891 1 11.793525577719528 4.4916987573135785 6.01979734469209 2 2 1
1257 1 12.05488132597146 2.311126337508126 7.035014606915737 -1 1 3
1337 1 7.776492675427857 1.9864928955862056 7.597550050233364 0 2 0
1281 1 7.788763241576221 2.976753600660279 4.514778365342968 -2 -1 1
914 1 9.506810402439404 3.268849581191647 9.449550245810297 1 -2 2
1194 1 12.52034619123337 3.647438771207178 2.1910844753189966 2 0 -4
1793 1 15.135268654445206 2.143555174519884 7.484431770863447 1 0 0
122 1 16.4632271520573 3.624020437737985 7.420379979313737 2 -1 -1
925 1 13.956690594792253 3.7177399466136447 6.631527864916808 2 2 0
857 1 14.248900257702461 3.874825388375204 8.76355343262524 -1 -2 1
1087 1 11.967580854127418 4.147633943212549 7.835623067080757 1 0 1
463 1 12.633695384654514 3.76071017523851 4.141903226291491 1 1 0
1107 1 1.8275366515819218 7.013563646727673 13.959247005423219 2 1 -1
743 1 17.2423021200154 1.0079814419473772 10.309434569474341 0 1 2
49 1 16.61743602053077 1.6392505522655565 6.1200229395222046 -2 1 0
1493 1 18.506750036274866 2.687131674464223 8.343342604207674 -1 3 -1
112 1 17.734823486268596 4.721415093750878 11.215086317445467 0 -1 0
1681 1 15.686062812031304 3.2273408000182195 5.481362222331381 -1 2 4
896 1 20.26863936146035 2.0791128292464265 7.262719078957414 -1 0 3
675 1 19.668835882728928 4.150497211302218 9.408959946060076 0 0 1
762 1 18.521440550164378 5.228653347337439 7.652310978095053 2 1 -1
974 1 26.896997553728454 2.386605809681293 11.624467977072854 -2 1 1
1676 1 7.052755494796457 13.829060202892375 12.345355243163041 0 -1 0
1229 1 21.490405959006424 1.307130383979238 13.435556666434575 1 -1 0
1077 1 20.16495407620281 2.423957067459795 5.317764142351917 3 3 -1
1048 1 23.221804270264464 3.043775581276895 8.673729073277112 3 0 0
913 1 22.825756441349117 2.922365671041131 6.283071143877507 -2 0 0
193 1 8.29641328456773 7.309352864142418 1.6583888199046954 -2 0 0
981 1 21.217645956161608 3.7658763128798594 7.36960299424643 0 0 0
1620 1 4.149513319785399 5.61635835332578 1.895656576881239 -1 -2 0
760 1 24.221307574801457 1.8502779645985492 7.573458550544543 2 1 1
1164 1 24.734508111123013 1.7272992742920243 5.34364401161278 -3 -1 0
201 1 19.88741932352185 4.778583834258139 5.938035518329537 1 0 0
1053 1 20.373658507344274 3.7307321969915352 13.772502289864267 -1 2 0
1063 1 25.89622548616272 2.9569334690958864 7.376777030537475 -1 -1 2
953 1 25.819202585344996 5.540506332521865 7.387723510316152 0 0 0
393 1 24.078794187622265 4.9833843423090185 9.691182447552483 -1 -1 1
488 1 1.1767916156222753 6.286923137617063 9.068869703399645 0 1 0
416 1 3.0004152702786535 7.039189840749776 1.8370760682610117 2 -3 2
148 1 26.521197034684832 7.542818597460862 5.54167000134851 0 0 0
107 1 1.1997123163668295 5.768794718411313 6.920836499262932 -1 -2 0
1682 1 3.115076801621781 6.023739653617351 7.8715311618834445 -2 0 0
682 1 27.297970439214033 7.969069124260162 10.358336198580464 -2 2 2
1819 1 1.7702742549642279 8.25017748977287 8.01319251086731 1 0 2
1118 1 4.121140868528464 7.411682857933458 8.98868100584909 -1 2 0
1956 1 26.59495162120453 7.586694025080456 7.62231745043855 0 1 0
1093 1 0.9766623764713879 8.71075133363318 3.62279669085634 -1 -1 1
1511 1 6.109742057365209 7.958482699851216 10.199471376761787 3 -2 0
1429 1 4.265129547913999 9.415315124190895 6.228900798194817 -1 0 0
1382 1 6.342081878650527 10.226909560788426 5.250386015711593 -1 0 -2
431 1 6.886475814246792 6.340452360452827 6.6346634705733 -2 1 1
877 1 5.832450936079265 9.05452649787001 7.840820129954913 3 1 2
35 1 7.3993842025460745 7.580400714824976 8.208030359126072 0 1 1
738 1 6.780272740084464 8.41508318832318 5.828250921201018 0 -2 0
270 1 4.797332453203193 7.0810964080370935 6.9431177431774795 1 0 1
1184 1 7.725818074416867 10.07326832285965 6.913120479615819 -1 1 1
1458 1 9.84944799757375 4.643292176313894 5.310733545591482 0 1 0
1901 1 13.63930621286355 5.800252551954011 7.35763441044709 0 2 0
218 1 9.934185896872675 9.606837111856077 6.972159266716328 2 0 0
341 1 8.509630790686648 5.2023403993007635 8.31628668540252 -2 1 1
313 1 11.035455056192584 6.567208436839798 5.560462440582645 3 -2 1
278 1 10.480701356101418 10.188646790937566 4.190001999954752 -1 0 1
1702 1 14.82015332188155 7.720963766921688 7.210545761298815 -2 5 0
2022 1 9.369872739491651 7.445806046867943 9.320547292852176 -3 1 2
839 1 11.445642452826666 8.008729436208323 7.506268295370584 -2 1 2
2006 1 11.09651843142513 7.530945439645907 10.256368366940066 1 1 2
1954 1 13.702896933060323 5.363778983798263 5.367919060033699 -2 0 2
240 1 16.463533059564224 8.154423766494741 8.338995294304281 -3 -1 0
995 1 9.13576611733419 7.156415441586741 6.954059474399338 0 -1 1
80 1 12.737631790937519 7.619723171503583 5.770717844638479 -2 -1 -2
644 1 13.725505756956736 7.480297943046891 9.59698620272204 1 1 -1
565 1 16.01286957621032 5.89896276538724 7.772392185622665 0 -1 1
579 1 16.401481551399748 5.4341337092280275 3.7088203463397433 -1 1 2
2013 1 16.907614968406318 4.890379492349683 5.931636969074448 0 -2 2
8 1 15.516141212138718 6.410380548683013 5.417852535503583 2 -3 -1
852 1 13.846380633727549 10.348917048009483 5.354480254496842 0 1 1
466 1 18.34864668227437 6.260579375979132 5.343987239488793 -1 0 0
840 1 17.903360349694722 7.2178176605045286 3.618531969977117 0 1 -1
1002 1 14.763692860486158 8.341041630554106 5.205676878711967 1 -2 0
1425 1 16.850938636362887 7.857299735273046 6.196704100568055 0 1 0
575 1 17.999294459736777 9.474309637910778 7.3846978542545365 0 -1 1
831 1 15.474892073428066 9.348287376838424 10.110042596096251 0 -1 1
206 1 20.184245585679047 7.073887017154945 4.952299952166708 -2 1 -1
551 1 18.582771952017566 3.1864639508230357 6.590829551193122 3 3 3
1240 1 22.904978798392367 6.816564041078266 5.47461345958297 0 -1 1
6 1 20.915681363011398 2.228314612471745 9.475332544642475 0 -1 0
1563 1 20.181976695762152 9.306914378302633 7.5901188973536575 0 -2 0
963 1 19.284108038201165 7.3017441431381735 6.850917830425622 -1 -3 2
1920 1 19.8611702392819 6.696789249746488 9.045019398043754 0 0 -1
836 1 21.25665414838661 5.701240112494652 7.184564733609519 -1 -1 0
746 1 21.036979611095006 8.77315069676185 5.501690872795892 1 1 0
855 1 21.66581973597427 4.790954917141384 9.528922541025722 -1 -3 1
1758 1 22.155059877560372 10.48135052092254 6.942995213324557 3 -1 1
539 1 24.65874115400156 6.649025049516603 6.439683842054614 -2 -1 0
759 1 21.51766128921446 7.901325746628308 7.484395464567644 0 0 3
699 1 23.24148272595499 4.754472741774361 6.847855525968273 0 2 1
145 1 26.46394054766398 9.474028844887982 5.176771794505177 -4 2 0
1456 1 25.546490365021807 9.029552435627673 9.200461712281129 -2 2 1
317 1 24.796812710060422 8.443387426618745 6.963995312237307 0 -1 -2
881 1 24.208410203100836 10.550815458319741 10.614197013619744 0 -1 -2
560 1 1.5939540385713697 1.4469565746797115 3.0975142834358964 1 0 3
1355 1 1.1946352996912855 12.244883041781328 8.418900503046556 -1 2 0
1224 1 2.354658906948158 9.086963585435406 10.006719428915016 3 2 -1
674 1 3.595549038919092 9.159581825019776 8.03926285523451 -2 1 1
980 1 15.364476152243377 12.747109162672327 13.477388888976193 -2 2 1
652 1 26.190798129602204 9.835176831397092 7.4000105789870165 -3 -2 -2
409 1 1.5731536237517816 10.22459326129605 8.467323544786744 0 2 2
415 1 1.6933270840586951 8.863056264774366 6.051454960583856 2 2 -1
1914 1 3.1305717513398608 12.418007936470833 8.803381959611578 2 0 1
713 1 8.26427897343892 10.026338781244162 3.965923395497855 1 1 1
243 1 6.8341028215424835 12.102259952618668 6.393522687673524 0 -2 0
242 1 4.710492948891108 11.376464409472204 6.968833815601758 0 -1 0
1884 1 24.890827146117292 7.403303973640182 1.3819027223952942 0 2 2
886 1 16.40039292004422 3.888223094980637 13.553756208772555 2 0 1
1079 1 8.47824248512051 11.73003872653965 8.101071433003337 0 -2 0
635 1 6.260952399081848 12.669028746829488 8.42596634653999 1 3 2
441 1 9.905617549413194 10.874619187846623 13.332082318239248 1 -1 0
72 1 6.800590917274054 10.324840728729985 9.546679393799574 0 1 0
1944 1 10.610666292094088 11.80431075028427 9.882208239370195 -2 -2 0
1299 1 13.22053105267911 13.637800795175973 6.835658215916045 0 -3 1
1783 1 12.610306918537553 13.44517456260795 4.917082114959486 -1 3 1
1129 1 7.642056600550718 13.903638756116354 6.961866746191652 4 4 -2
1539 1 12.135867056986594 12.557421831114786 8.59715346423732 -1 -1 1
1310 1 10.327441857530818 5.494491965721061 1.2756081339143528 1 -2 1
136 1 13.727145769639744 11.586210970864213 7.433494204279507 -2 -4 -1
534 1 14.897789165642463 12.10883478542759 9.337615234883401 0 -3 -3
1546 1 15.330185265539203 13.530175248815082 7.606853824094266 -2 1 0
103 1 16.473842485513167 14.011788852327221 5.899369169262057 1 0 0
259 1 17.950350340589562 10.520033455438746 5.0031544110680235 -2 -1 0
607 1 13.43091818400555 9.88370547767636 9.310685855741022 -2 0 0
555 1 18.952843525885893 8.893932543060751 5.667960778446269 0 0 1
241 1 15.838837161038047 9.800110914733901 6.067393158998069 -2 1 -1
489 1 17.377571905397453 11.207221964299915 9.301927639739297 1 1 -2
732 1 18.27628234718336 13.016509005799033 5.039860552464346 -2 0 0
1952 1 19.18411675363413 9.10678022948559 2.792406954027994 -2 1 -1
1714 1 19.579455430352745 13.051018943575158 6.776564533359069 2 0 2
1236 1 6.653036294630939 8.518010586095375 1.092013849840824 1 1 0
258 1 16.287837572854905 11.666161163421432 6.664286751533528 0 -1 0
1964 1 19.224318261969938 13.232652192122744 9.214687547458436 0 -1 0
315 1 21.65790027370806 12.870517052380716 6.934528749130743 2 -1 -1
990 1 20.07810288937344 11.208969491666876 5.825985605378572 2 -3 3
879 1 16.81951033383308 8.975975612438038 12.746234548942855 0 1 -1
380 1 23.51687225792467 11.797415590659666 6.710856661640832 0 1 3
1798 1 23.284727809338364 9.355301184291736 5.648904189924087 0 2 -2
1328 1 20.88969503626159 11.399612628494713 8.699940374745921 2 0 -2
912 1 21.249509027079803 8.910177954851482 9.83224096102393 -2 2 2
1350 1 23.443580673282725 12.616713317583306 10.732418628229512 2 1 -2
1630 1 24.591646114094964 13.098201413683626 8.17785836582604 -1 -1 -1
1105 1 22.142868590468726 11.484567807451409 2.4198150553467217 0 -2 -2
1540 1 24.719158777283017 10.817915875552488 8.465286779043208 -2 0 0
1808 1 24.62893240846568 10.885828552375203 5.377283207246731 1 -1 0
505 1 26.17424791726022 12.45396482028941 6.615614800067153 1 -1 3
1497 1 23.002113632321844 11.770771151442384 8.788135360766058 0 -1 -3
1111 1 27.012573699000683 10.722607317453079 10.175984518578812 -2 -2 -1
894 1 23.043349370674132 9.48024295500944 8.53312913703747 -1 -1 2
1095 1 25.322785774385427 13.154540654381007 4.810696444915024 2 -1 -2
1149 1 23.660205897522083 7.2515814267934635 13.26968715273568 0 1 -4
569 1 2.003073133858727 4.245074705744557 10.429501962608143 2 -2 2
420 1 3.941978880963177 2.465682902151417 12.530900513003612 2 -3 -1
1885 1 26.49816412179219 4.384697175232301 12.425525807559348 -4 5 0
1225 1 5.382543367331673 4.031923765585001 13.26564747922759 0 -1 2
904 1 3.9033837221841834 4.708921260535074 11.577198611010154 2 1 1
868 1 27.458176713969035 13.088239903533589 4.063792654849088 -1 -2 1
92 1 3.821927906768562 5.1399320487333675 9.655982346885637 0 -1 -2
791 1 3.259306728968018 4.335322668099357 13.99962305146219 0 2 1
604 1 14.482940784366694 13.70557451985795 3.8292691312872504 -1 -3 -1
552 1 5.871655842994129 6.162781289826255 8.848838436400984 0 2 0
358 1 7.782390742135697 4.137467193275134 9.814908545303853 1 -1 -1
859 1 8.31436958803976 4.74945684654103 11.905133879656763 2 2 0
1276 1 8.58995158597424 2.583772120593886 12.15105808378104 -1 0 0
1066 1 6.981510316951929 5.304337841777963 13.739545685645018 -1 1 1
1375 1 9.478614586184538 6.616541645213338 11.838454223964128 2 -1 -1
1653 1 21.321874071673555 13.641574236706035 8.886239457397528 2 1 0
1017 1 12.379161854258339 4.251598992797936 12.211141591646436 1 0 1
1012 1 10.310448135950868 2.7470908990952436 13.369905966630114 -1 3 -2
1575 1 10.598646040497776 2.683516201794994 11.119481582846356 0 2 0
530 1 11.472701862379475 2.1800021522763915 8.918210678159838 0 2 0
1687 1 12.28245790111581 3.6211552066139756 10.313180445092724 1 0 2
1502 1 23.87923291572023 4.670864282364008 12.889686808327005 -1 0 -1
324 1 6.914715463773015 3.9704722066130453 8.007497125144848 1 1 4
1683 1 10.408332159873893 5.384574032522315 9.849140089699326 0 -1 0
78 1 20.34457232877969 7.7426629883651685 13.078107660151506 -1 2 -2
194 1 16.745766884398172 3.113876532182684 11.172742894994329 1 2 0
1576 1 15.962373207594858 2.367354732495199 9.341304436105979 -2 3 -1
1277 1 3.06564740725674 13.460124430510211 10.645630072671763 1 1 1
786 1 18.50401637783928 8.679505560199466 11.764106498941478 -1 -1 2
1440 1 17.3851097124818 1.8038730544908375 13.436147361637975 1 0 0
568 1 24.600062110633782 5.5489269909050085 2.010167347673053 -1 0 1
1802 1 16.981288808629976 4.3453296078561205 9.232393538152563 0 1 -2
1966 1 7.959220954169106 10.42875402422336 1.8715141114518017 1 1 -1
353 1 13.577004577572932 5.050155747142843 10.600753534935752 4 -2 0
1321 1 17.762395445348243 13.81187489146388 10.34541552294509 -3 1 0
1348 1 13.079347129200785 1.7271107898807814 5.266161358833575 1 2 0
2014 1 2.9246556469012313 13.967133604053476 2.966963737931298 0 0 0
1339 1 18.86179944848109 2.6315163246629147 10.615429462460884 1 -2 1
1100 1 15.226897234252602 12.4347469212713 1.2734191772829393 -2 0 0
1745 1 13.521842122859596 13.766736471297307 9.89924669323823 -1 0 2
1123 1 23.4377691445168 1.2457272331689737 9.398954905781434 -2 3 -3
293 1 21.39959802558932 2.9095448788509475 11.439268249272029 -2 -1 -1
1735 1 27.25983037644383 2.688604786971177 14.174287593839944 -1 0 1
1805 1 19.320401168642782 5.765314138238901 13.777427811188996 -1 0 0
1882 1 22.210279965354086 1.1586600835995327 7.080525262236759 0 0 1
709 1 18.502639969782972 3.577484071175139 12.43744267964711 -1 -1 0
2048 1 23.105040216779493 1.5531325085515326 12.088774568097776 1 2 0
1205 1 17.372202631834337 12.933857510548515 8.06394319570797 0 1 -2
1736 1 26.292864082198836 4.530073075170899 10.401199468054266 0 0 3
166 1 23.280482770937 3.5732723032745266 10.887650684191849 0 1 0
1691 1 14.6181779139633 5.213496287286715 1.4043043334537613 0 -1 0
998 1 26.89626999993929 4.3694778583966425 8.47418931420556 1 1 1
587 1 21.941787660610487 4.66646531786351 12.316279302804725 2 -2 0
222 1 25.378142041878483 6.2772613558265595 11.409720820432051 -1 2 -1
121 1 9.248183857846351 12.958370905739468 11.436889834056748 -1 1 1
86 1 1.280286307042295 5.859578310773504 11.313301992936218 1 2 -1
101 1 2.4742936566840896 7.717442548792481 11.696654574650568 -1 -1 0
233 1 4.224292997781655 7.172101435926826 11.040261040057647 -1 1 -1
1872 1 13.38137887783684 10.9614996075105 13.998807587863915 -1 1 0
481 1 27.002397898919927 7.257979151875358 12.544768822094175 -2 -1 -2
171 1 2.6401961584979152 5.876751200695764 12.76546906066041 0 -1 2
1648 1 1.4351653550659977 4.702427426907715 13.659815982161692 0 0 0
1080 1 3.1067987812736906 9.958316031862127 12.559371944495448 1 1 2
337 1 5.941391916203779 5.374013469565147 11.47989957602213 0 2 -1
1199 1 20.45878806914437 12.68047829400292 4.480176062631141 -1 0 -3
1558 1 21.094712256739374 12.413622188602224 11.11990060954377 1 0 1
1483 1 7.963408574249975 8.547424624705762 10.549291878926999 3 1 0
570 1 8.486793904123171 8.253027750495384 12.667253664500723 -1 -1 0
368 1 8.081499724486363 6.256082411261435 10.5660780759826 1 -1 -4
1757 1 10.448552585364876 4.477595186615554 11.773097617881676 1 0 -1
994 1 1.2605826035702432 11.78906071271148 12.429197139422662 -1 0 -2
1247 1 12.50400414436289 6.022132150679108 9.043704532979348 2 0 0
1899 1 14.321510258073696 2.952922118450085 10.887485024413683 -2 2 0
554 1 11.682987018247564 6.014824774918582 11.352783964777785 -4 -1 0
503 1 10.597309685402504 5.865149077769808 7.591340410931925 1 2 -1
1603 1 15.468641437097972 10.744682181799572 12.817823606438777 1 0 -1
2028 1 15.572225793785918 5.342500777107725 11.941715607317878 -1 2 1
898 1 17.2465789898084 9.395607277183334 10.39587820954953 1 1 0
1186 1 15.459617504956885 10.252899356774039 8.292250361683884 -3 1 -1
2002 1 15.404617258811195 6.0057024528718905 9.637036544222827 1 2 0
754 1 13.965077750796208 7.022483237281993 11.635097303668408 2 -1 3
1953 1 13.29301756762677 9.23069151732643 7.175737178477782 -2 0 0
1813 1 14.397759623909419 3.660397188849627 12.886593509623836 2 2 -1
1358 1 13.367165590915041 7.328573191664589 1.4690197324577334 2 3 0
715 1 15.45229630441442 7.521397120187619 13.400325481362508 0 -3 2
1304 1 25.215699858686335 3.1944461644039364 13.47546768232042 -1 2 -1
1590 1 20.47250653893318 10.002781728574123 11.669564867722343 -3 -1 -1
153 1 11.771246326715385 13.074194324079276 11.310475157925161 1 0 -3
694 1 19.231338730216585 10.608782759703704 9.569033272748786 2 -2 0