LAMMPS data file via write_data, version 29 Oct 2020, timestep = 300000

2048 atoms
1 atom types

0.9361963075029536 27.41580369249622 xlo xhi
0.9361963075029536 27.41580369249622 ylo yhi
0.9361963075029536 27.41580369249622 zlo zhi

Masses

1 58.933

Atoms # atomic

35 1 2.659280740983471 2.346468458910209 4.1103313469367 0 0 0
40 1 4.2611862146883706 4.054906767225155 4.3504713118055545 0 0 0
130 1 4.1431891007571195 2.7651024319792716 2.669948396536114 0 0 0
37 1 2.8473421296328514 4.496587266310816 2.740337388342293 0 0 0
4 1 1.408127527488069 4.336022031551806 4.53709731264562 0 0 0
158 1 1.155166917539942 2.840609639393746 2.887982152473427 1 0 0
2 1 2.4151596622480263 2.81167384666019 1.1274469118547006 0 0 0
33 1 1.0419758391381941 4.469119014597905 0.9415100449192255 0 0 0
134 1 5.779587805457426 2.4016413505958765 4.346421095873195 0 0 0
165 1 5.867963448464656 4.1490313422128615 2.7890150581068056 0 0 0
137 1 7.1288579165775285 2.694838638641162 2.521869341150163 0 0 0
169 1 7.4309767885602085 4.062512228216701 4.616497056551155 0 0 0
141 1 9.044925464908863 2.6604527026304865 3.9116402801498915 0 0 0
43 1 9.269442527430614 4.231104436121276 2.608618365353692 0 0 0
1254 1 5.871554132945604 0.952896362406887 2.3503913113109185 0 1 0
140 1 7.618516701192931 0.9743889747123475 3.849392812287086 0 0 0
16 1 11.078502032763073 2.61611064542075 1.989078590765331 0 0 0
173 1 10.553002401444237 4.687820369187898 3.970741098290891 0 0 0
47 1 12.099437053901822 3.9692851859681433 3.38831724600384 0 0 0
142 1 11.849005361923263 2.4286023462947472 4.4742337758222765 0 0 0
145 1 13.757837034214175 2.312106375237664 3.2258675582074097 0 0 0
46 1 10.655520028788727 4.539857123981367 1.165835095959515 0 0 0
174 1 13.812490578609374 4.6650512138968345 4.4320498706329055 0 0 0
11 1 10.388610480425207 0.9860514521862519 4.0944697391787335 0 0 0
49 1 13.695169761494563 5.17772969658404 2.225771110196154 0 0 0
14 1 13.00096147794108 3.469782269956634 1.5877990929815016 0 0 0
21 1 17.146006226797315 1.0904397276295001 0.9397005935740994 0 0 0
149 1 16.927573157906117 1.0499778476518062 4.114016757132313 0 0 0
177 1 15.497461724021969 4.157939917886473 2.754033980132598 0 0 0
20 1 15.276202121385323 2.666696314274726 4.698767949483533 0 0 0
146 1 16.95892741602659 2.4024965072930424 2.778890588417181 0 0 0
181 1 17.10911686785711 3.900532195835139 4.304309268590757 0 0 0
19 1 15.617322220797247 1.0188194002841762 2.6631050814042396 0 0 0
18 1 15.63424622023772 2.8196196301785976 1.04542617241754 0 0 0
51 1 17.228435880071913 4.4397238316930405 1.4135554028176522 0 0 0
55 1 18.671821144343564 4.6797480160449165 3.08374258733619 0 0 0
150 1 18.81518929580205 2.635370731403485 4.146598182507031 0 0 0
28 1 20.806692724834463 2.5711508887854215 2.568189909223438 0 0 0
185 1 20.995415526602184 4.559749923495829 4.378654373052816 0 0 0
154 1 22.360852600639003 2.8201270316737235 4.6444792554463215 0 0 0
59 1 22.460962938558094 4.391130473212412 2.6907875143385045 0 0 0
57 1 20.795464864712077 4.582833525332987 1.4862327163015232 0 0 0
1152 1 22.417570802958743 1.3297333963036335 2.6573648530805967 0 1 0
1276 1 20.869212623404003 0.9787616869850669 4.224340907795494 0 1 0
24 1 19.10545588006249 3.021875191087619 1.4756441501497775 0 0 0
29 1 22.21293544227973 2.356686659949337 0.9793829133829881 0 0 0
26 1 24.17075063152687 2.7766022268594535 2.7465014168015958 0 0 0
32 1 26.017357093855463 4.285601074277511 2.1569643224679473 0 0 0
189 1 24.048439314078603 4.404088465083381 4.109007526903483 0 0 0
31 1 25.979726388892963 2.8125260454953582 4.106392190716633 0 0 0
960 1 23.71471419260604 3.981478851276544 1.1386140608195043 0 0 1
129 1 27.342342627887092 1.1337752458542805 4.287129839636718 -1 0 0
1 1 27.232881102307143 1.0288284774655267 1.074432228320049 -1 0 0
936 1 4.252594403023423 5.988552429122686 3.022798003896474 0 0 1
162 1 2.575133403871154 5.887804234843199 4.12309732182192 0 0 0
197 1 4.233924416239411 7.720372047530209 4.375221590628197 0 0 0
193 1 2.3242295673144735 7.803889230370388 3.1318727276128713 0 0 0
69 1 4.301618765221379 9.025066444464455 2.498690234284778 0 0 0
194 1 2.0897559761420745 9.388796706957827 4.544903907017751 0 0 0
36 1 1.048655235206447 5.823325404894733 2.753530757645169 0 0 0
67 1 4.267083223096856 7.64776798115695 0.9427467740107254 0 0 0
34 1 2.537507776625972 5.804379082743388 1.0525728542672148 0 0 0
71 1 6.115425758873329 9.400032830205358 4.714281583294431 0 0 0
166 1 6.034379495554212 5.767040576344024 4.287181549630432 0 0 0
38 1 6.181109633969202 7.514701010814312 2.907532131756426 0 0 0
44 1 7.656823663081598 5.956991196806801 2.7958108052201585 0 0 0
170 1 9.142420303216694 6.277241771197385 4.44049182254145 0 0 0
201 1 7.393574953089332 7.649488581620443 4.588668453179204 0 0 0
76 1 7.087143292972775 9.692087293058801 2.5753868235860273 0 0 0
75 1 8.913190983141106 7.82035427338035 2.775920139198659 0 0 0
42 1 9.332963091562092 6.035747745793764 1.1897357038929266 0 0 0
39 1 5.501147739832354 5.707274186573702 1.250066422020498 0 0 0
233 1 8.831228170223596 9.411875085873534 4.567925559901461 0 0 0
107 1 8.619375717020537 8.947712706482385 1.3089149691664193 0 0 0
70 1 5.928603834365186 9.006116903874672 1.0874880085950274 0 0 0
202 1 10.626047693864688 8.036933969750397 5.100315999334612 0 0 0
48 1 10.874567034436849 6.18416450967766 3.003138891518384 0 0 0
205 1 12.207745016657324 6.387466781678253 4.872178523312931 0 0 0
79 1 11.89036535363507 7.828279136507564 3.3356409762389245 0 0 0
206 1 12.466654304137409 9.524442077840176 4.899980977973543 0 0 0
80 1 10.39069999069298 9.194660868744181 2.8435240443211804 0 0 0
207 1 14.00845392979716 8.277950780539825 4.734122057512145 0 0 0
52 1 13.775477164726283 7.062637842238883 2.9667344568414014 0 0 0
241 1 13.67955803256005 9.503400770989057 2.7855634734352015 0 0 0
77 1 10.557792896228118 7.567063632359382 1.2113954952052721 0 0 0
78 1 12.408063124482107 8.851270792071341 1.397708284131832 0 0 0
81 1 12.290479631284343 6.473321533184562 0.9986168023241646 0 0 0
178 1 15.582469582864052 5.801469667231704 1.4232996853019677 0 0 0
56 1 17.16656652848987 6.2287953861146965 3.4663207679237975 0 0 0
213 1 15.26753597053097 6.164875079403743 4.605447773998646 0 0 0
210 1 15.727893923236515 7.741153096996007 3.224564567367516 0 0 0
87 1 17.542431386296194 7.522881195122225 4.951777138327501 0 0 0
115 1 15.846548759694373 9.110378856551458 4.635549925545174 0 0 0
88 1 17.61972017922527 9.272594026695971 2.659560574851021 0 0 0
85 1 17.455043779766903 7.05232577388357 1.6709649355070098 0 0 0
82 1 15.725117517392121 9.062928645425847 1.6006965318025634 0 0 0
956 1 20.68121185609044 7.721671121583123 1.2376417966125584 0 0 1
86 1 19.297211613448574 9.231815685152826 0.9879780812475272 0 0 0
89 1 19.04512887119351 7.678974377499093 3.009991950096378 0 0 0
182 1 19.27892982470032 5.632363659112556 4.929960613845017 0 0 0
214 1 18.895467424147295 9.091221803476063 4.857853727447429 0 0 0
186 1 22.79956500728647 5.951317486549564 4.003205035411366 0 0 0
60 1 20.620888613882197 6.375914170228999 3.0692484516708434 0 0 0
217 1 20.804151219551475 7.671897890707455 4.588851158421262 0 0 0
91 1 22.51489444819187 7.679247628566508 2.5504487355960013 0 0 0
92 1 20.72244934323799 9.393967177545186 3.0602422786363386 0 0 0
218 1 22.472842197363487 9.010213633849142 4.36664787331425 0 0 0
54 1 19.195606936714398 6.057555431750924 1.2939794825891513 0 0 0
190 1 26.88411988104337 7.426236209151317 4.559552513325007 0 0 0
99 1 27.26400361150291 9.00694441422077 2.2087509219021477 -1 0 0
62 1 24.128664927487307 5.788996367693244 2.2520565124170613 0 0 0
61 1 25.75364623653552 5.376496497593088 4.170269670382087 0 0 0
95 1 25.80784473121025 7.764958864536177 2.5849529405580167 0 0 0
221 1 24.191244120163123 7.4447351510417485 4.0155502560678995 0 0 0
96 1 24.13844718208664 9.287354803457639 2.457887620129286 0 0 0
222 1 26.252382981794774 9.356924793247689 4.229845153628556 0 0 0
93 1 24.069058449084984 7.613475502605889 0.9362967667355377 0 0 0
198 1 4.057423295024838 10.648966101119566 4.117152112363554 0 0 0
72 1 2.0144627407332725 10.724145559162437 2.5809055458241685 0 0 0
226 1 2.8026434913930043 12.887834687329642 3.901571189152861 0 0 0
229 1 4.274922875440733 12.780481306585534 2.4496905270644276 0 0 0
68 1 1.282051839617174 11.577148530689076 4.138370525796695 0 0 0
100 1 1.0084458897846922 12.719204451349182 2.3074199049643864 0 0 0
98 1 2.304119308005257 12.335589674383694 0.9380779725499231 0 0 0
101 1 4.547972581070814 10.78744654787146 1.0734248485380533 0 0 0
1033 1 7.216669464140098 12.873404458812765 2.441599154445596 0 0 0
102 1 7.518457060416929 10.858223797136894 4.35518246447166 0 0 0
103 1 5.558360204523486 11.060813256638188 2.7766721218330335 0 0 0
357 1 5.610003529411079 12.403390315103392 4.596346552029438 0 0 0
236 1 8.825601882845763 12.842955440563063 4.150427660576758 0 0 0
234 1 9.04494451592218 11.182569265302375 2.654951005940732 0 0 0
108 1 7.264901579720977 11.142569806468876 1.0106740599391095 0 0 0
112 1 10.644655524654985 12.730490777890628 2.5074405579685783 0 0 0
237 1 10.456777491528653 10.893146764867423 4.452822435947175 0 0 0
111 1 12.043905548542732 10.649614364304185 3.0000909998757384 0 0 0
240 1 12.183246640989646 12.546191938408468 4.458580008686732 0 0 0
110 1 13.799457938092363 12.093118703783137 2.6713029902442624 0 0 0
113 1 13.930496307540816 10.685183899071353 0.9693175569465419 0 0 0
1039 1 12.519522456806051 14.085964815455071 2.775461924765866 0 0 0
109 1 10.981745928047246 10.92512332561037 1.252033745139392 0 0 0
1040 1 12.695618602636742 12.62376204975479 1.0032538737822563 0 0 0
1169 1 14.293698036765903 13.990618661246714 4.091370700798687 0 0 0
238 1 14.280552047656919 10.782892894207531 4.9115972469833995 0 0 0
116 1 15.513671359168223 10.755843338087036 2.972028313669441 0 0 0
242 1 15.779921613008955 12.713676865416392 4.6570053515170216 0 0 0
120 1 16.928873252262864 12.29555980337489 2.5969735500026854 0 0 0
245 1 17.498743245919268 11.106032493467168 4.284057397889526 0 0 0
1043 1 15.6953068996077 13.797084612635993 2.5831421299018826 0 0 0
114 1 17.07132325320622 14.112052573177703 1.2277437349018712 0 0 0
118 1 19.104002123940383 12.088945521956317 1.061923705543529 0 0 0
1051 1 22.265774316245917 14.174793378232339 2.7405671431849603 0 0 0
1047 1 18.815370774985706 14.026189479664227 2.410867544685161 0 0 0
119 1 18.90482588545489 10.853028854979426 2.6249141319054337 0 0 0
247 1 18.869487260952482 12.411993425417794 4.094538839704979 0 0 0
124 1 20.631806444098792 12.886010111741582 2.6918939897851155 0 0 0
249 1 20.94384281555428 10.893233144532 4.241226982307683 0 0 0
128 1 22.499014016099498 12.623273417198984 4.346578529486157 0 0 0
121 1 22.473904331924473 11.102913639342667 2.831617669057179 0 0 0
1019 1 20.71137762812385 10.755562370818632 1.050780970250898 0 0 1
123 1 23.97993088464495 10.863547368113275 4.420154930557864 0 0 0
127 1 25.64263448162696 11.040247810989163 2.551142627810533 0 0 0
254 1 25.726482654991816 12.80525622914845 4.29959432987172 0 0 0
1024 1 24.08880114691129 12.413234098871465 2.5608969630312277 0 0 1
167 1 4.224843079577931 2.3664900272042386 5.895325560574252 0 0 0
163 1 2.8786729599344643 4.09107951373064 5.996322968355513 0 0 0
264 1 2.518655979017832 2.171624846962171 7.319768645056086 0 0 0
290 1 4.231829041969158 3.8671042305975587 7.72846765860891 0 0 0
291 1 2.3838191256073324 4.270367657247023 9.442044168723172 0 0 0
386 1 4.071878884555715 1.9491505235601068 9.253712875094392 0 0 0
289 1 1.3331357394055847 4.211240845124104 7.436414047536931 0 0 0
132 1 1.0064377195458143 2.5228055956930544 5.990466466213413 0 0 0
286 1 1.3751790950902556 2.361096357707825 9.12926163812508 1 0 0
266 1 7.759376894985323 2.6585668020512996 5.991066862324801 0 0 0
267 1 9.040924222931142 1.1329233423144522 9.268203572075745 0 0 0
138 1 9.291356040859169 4.487811047355427 5.905646554483607 0 0 0
261 1 5.710952992838747 2.527605917377497 7.490985905156323 0 0 0
168 1 5.936732296574976 4.394243857525692 6.141182780827679 0 0 0
262 1 7.622457031187801 4.313100665495028 7.541993299325669 0 0 0
268 1 9.304670753506803 2.749554679860844 7.595477780073707 0 0 0
299 1 9.041852851249848 4.275565693723047 9.159986331301775 0 0 0
425 1 7.18701992845906 2.9890139552410715 9.279008742051941 0 0 0
295 1 5.452894575949287 4.255885817194624 9.643365388593882 0 0 0
175 1 11.848101875931153 4.440773639082783 5.834137279560849 0 0 0
171 1 10.43072065904958 2.342465365707022 5.680367568589745 0 0 0
269 1 11.22178887987182 2.391273750385978 9.31474947907991 0 0 0
301 1 10.873541328584801 4.357064193797994 7.818560066457391 0 0 0
270 1 12.075694973685685 2.414839248552661 7.278209742103442 0 0 0
272 1 12.331231599755561 4.422350807783838 9.190180069615707 0 0 0
209 1 13.616198303388314 4.13603819491148 7.458017372323075 0 0 0
303 1 13.957206005952177 2.792210619607676 9.019408631985621 0 0 0
148 1 13.461470256779837 2.6965959655021265 5.744235411788157 0 0 0
273 1 13.995151031920189 1.0364708875004103 7.5578049933458535 0 0 0
271 1 12.763003517845211 1.0170570177979243 9.150830202602657 0 0 0
274 1 17.41163888260886 2.386629223634409 5.870168676058365 0 0 0
179 1 15.567005832472438 4.378209165472999 6.167927925044524 0 0 0
305 1 15.65353949837096 2.5818308523049023 7.670853887295324 0 0 0
310 1 17.492893008252352 3.9802853216898506 7.967421990623315 0 0 0
406 1 17.518200482582756 2.6876509957970667 9.503416577580111 0 0 0
307 1 15.451371530341033 4.288089503894447 8.89622075042553 0 0 0
152 1 18.988185678692012 3.9529884824187795 6.094604328436189 0 0 0
187 1 22.408922401033358 4.091661660180243 6.423802815029374 0 0 0
278 1 19.09583146297954 2.0146435994469645 7.773874632565058 0 0 0
311 1 19.548135533593715 4.60746477540686 9.504193007164938 0 0 0
313 1 20.731114340254692 2.447771740477951 6.367657266572183 0 0 0
156 1 20.59231883876022 4.222340910027441 7.642655374906683 0 0 0
282 1 22.312161238882616 2.2554083551922677 7.7034273230020345 0 0 0
410 1 22.55155261340591 3.8490451974973277 8.874133285292714 0 0 0
284 1 20.7311719918657 2.5668857018893183 9.243468420566026 0 0 0
279 1 18.810264847641275 0.9835557464046238 9.436887651500866 0 0 0
1402 1 22.42115035176844 1.1112508250202742 5.977158913403686 0 1 0
1280 1 26.070337046717068 0.963414916076097 6.173908320333313 0 1 0
64 1 26.015989646984227 3.8899840612682883 5.751137190872961 0 0 0
191 1 26.089759904676082 2.6736094506275476 7.4445046321134285 0 0 0
160 1 24.297084624401286 2.338811778068356 6.040906660213842 0 0 0
317 1 24.089935539668062 3.9445526887802895 7.405379534854597 0 0 0
260 1 25.986460421021626 4.102874501626354 9.048813140215856 -1 0 0
285 1 24.077241579032954 2.1790096598170456 9.112933436307232 0 0 0
293 1 3.890263071213003 5.8539442556319505 9.37704254124416 0 0 0
192 1 1.0338203670327788 6.036832025725234 8.82580600154906 1 0 0
200 1 3.90875933469084 9.562467564275902 6.073505961675044 0 0 0
196 1 2.388063546371855 7.814360316247323 5.921637238838991 0 0 0
195 1 4.079407543182874 6.1196469039300245 5.693949072159009 0 0 0
164 1 2.7295165615103905 5.768691338360931 7.14969274027385 0 0 0
328 1 3.721619543387785 7.6965279185099025 7.524960464085283 0 0 0
323 1 2.602203615416304 7.6466737764928085 9.278687605322183 0 0 0
485 1 4.022274187351014 9.574834544805569 9.382045419479567 0 0 0
322 1 2.446362400716522 9.708855889171591 7.6031592601647535 0 0 0
297 1 5.233815470039046 5.976174675118536 7.577273288590215 0 0 0
326 1 5.335558914535195 9.33228456745558 7.680990627622735 0 0 0
325 1 5.347453608158719 7.520986184553399 8.952180626203964 0 0 0
324 1 1.063073291292877 9.368114374322715 9.129936777938845 0 0 0
161 1 0.9866178440672456 5.937812216312008 5.630535794626326 0 0 0
321 1 1.050594876773497 7.6873332348905 7.438194053448709 0 0 0
298 1 8.660528439477561 5.899522187116682 7.875892599143832 0 0 0
204 1 7.294089031903867 9.129392600228835 6.592670710281307 0 0 0
199 1 5.8658117982679086 7.567868054616275 6.159864393872788 0 0 0
203 1 8.707665840315142 7.6880736783189265 6.224426403049296 0 0 0
172 1 7.371152566490759 5.989878124531612 5.749218941341071 0 0 0
294 1 6.886421308857846 7.421722577467929 7.9840321266436876 0 0 0
330 1 8.849804214118821 7.531413097429767 9.28250758684059 0 0 0
329 1 8.869590021213563 9.307328835617643 8.093159350743218 0 0 0
489 1 7.215153510185661 9.24207188768401 9.273352033990442 0 0 0
331 1 6.927751096139071 5.861868424633313 9.366828274908242 0 0 0
430 1 11.987001866464436 6.243615459736711 7.743758355900329 0 0 0
212 1 12.41910166176714 7.809722658280981 6.514756960396317 0 0 0
176 1 10.364889637042692 6.172192617705046 6.342550263068431 0 0 0
304 1 10.343543310260525 5.705928410915529 9.625603137638471 0 0 0
208 1 10.912802187711707 9.724527129491616 6.455046135885003 0 0 0
333 1 10.298345640123626 7.65772713702776 7.883819916481819 0 0 0
363 1 10.608939243180266 9.33287024197501 8.988391283969522 0 0 0
336 1 12.7128265557572 9.597666928474583 7.872654892551844 0 0 0
335 1 12.250834561482188 7.828010460882388 8.948748372097283 0 0 0
302 1 13.651936179443034 5.897486506631891 6.338863348814025 0 0 0
308 1 14.038206269526949 5.917078466276823 9.285395450841163 0 0 0
243 1 14.341179200107671 9.664105034865022 6.505819856690194 0 0 0
306 1 14.189488615163148 7.624293601270434 7.834874801288181 0 0 0
340 1 14.423058209108866 9.755987724615437 8.838793980073003 0 0 0
184 1 17.27745366195833 5.622643569056516 5.865546850911605 0 0 0
180 1 15.64493889327332 7.419507251027037 6.294857656440064 0 0 0
280 1 15.786647128021261 5.726272724902281 7.650702072720955 0 0 0
341 1 17.57491081414092 7.812689709342298 7.116322790757075 0 0 0
344 1 17.898697291126954 9.532462376856515 8.772778567125389 0 0 0
339 1 16.374920361298155 7.548318474924703 8.745916303378369 0 0 0
312 1 17.74187812357784 6.06590726225566 8.831937090075506 0 0 0
337 1 15.925503290494825 9.616924265138017 7.7256031616147185 0 0 0
220 1 21.192867406647537 9.047306597644127 6.209199538721003 0 0 0
183 1 19.021967473873932 5.757316764676798 7.381488693130148 0 0 0
473 1 19.424060822659605 7.455942965121823 8.970070140159356 0 0 0
219 1 22.772112981369435 7.575425457793887 5.896531301805452 0 0 0
188 1 21.26451779913394 5.716702793397443 6.272442613227922 0 0 0
215 1 19.66993984122483 7.392657511832296 6.225771241451812 0 0 0
314 1 22.82546583425961 5.861223939266289 7.655351207511941 0 0 0
345 1 21.299380520690544 7.277886410122635 7.633422487291252 0 0 0
346 1 22.865362382710757 8.915345477458382 7.517262729611332 0 0 0
505 1 22.795686603011188 7.520916161121598 9.154965585755075 0 0 0
343 1 21.16555499996456 9.23163031774078 9.030179585331366 0 0 0
316 1 21.29923012744862 5.827715158605919 9.55434302794882 0 0 0
342 1 19.464714427469907 9.310165341099244 7.235133840030342 0 0 0
350 1 27.38618913250658 9.287998780876206 6.132846287910959 0 0 0
318 1 26.07401731351663 5.652976738700086 7.445886781970971 0 0 0
442 1 24.343218036490207 5.493650227979876 5.943538659928272 0 0 0
223 1 25.52355145154773 7.542203965771233 6.2148008827704775 0 0 0
349 1 24.502582375092413 7.183453666510949 7.877878525146327 0 0 0
352 1 25.601794859000286 9.202637129202182 7.787394908451666 0 0 0
351 1 26.114660460545238 7.602871310233113 9.463465836009924 0 0 0
348 1 24.1940579091957 9.233624858616817 9.411210994784998 0 0 0
320 1 24.513494833413958 5.4524678428364375 9.104748627720156 0 0 0
251 1 24.47975948972814 9.259602253858068 5.706831582562144 0 0 0
1317 1 4.1179393372779245 14.086915166791877 7.360278883230065 0 0 0
1155 1 2.7160891917721193 14.112167865910395 5.913460725713818 0 0 0
225 1 2.3478928529785836 11.126655514930533 5.797502865323884 0 0 0
227 1 4.094656559011007 12.56158892236087 5.984392030594975 0 0 0
1281 1 2.5154049985711207 12.52033588697749 7.399261397608963 0 0 0
354 1 4.1299215740755795 11.088136011647679 7.5271910707958165 0 0 0
355 1 2.11926299033818 10.940765761260717 9.033370967679772 0 0 0
1285 1 3.5053127164115887 12.60560860300052 9.410799750185278 0 0 0
235 1 9.000756294844674 11.109098472720499 6.277071388032969 0 0 0
232 1 5.799605299828707 12.428866115915218 7.580922402025626 0 0 0
231 1 5.623480444568329 11.055004623306264 5.790566224042031 0 0 0
1163 1 7.423699525094944 12.808184238373025 5.639548389617907 0 0 0
361 1 7.383739054292484 11.134381924289567 7.338118135341255 0 0 0
332 1 8.283109269949925 11.017656361021997 8.989129561155478 0 0 0
359 1 5.893860496621432 11.023780765337786 9.137200085849464 0 0 0
362 1 9.076644526247446 12.882006728438002 7.946227307780359 0 0 0
358 1 7.245580430799453 13.024456895892223 8.960889695782615 0 0 0
1287 1 5.431244072287759 14.119154868876866 9.16479484920745 0 0 0
1295 1 12.14746366371116 14.091510424296736 9.334549526147438 0 0 0
365 1 10.278065645956847 12.700826170967826 6.027181181489943 0 0 0
239 1 12.238109178253723 11.369986993653358 6.293830718271723 0 0 0
334 1 10.296512193479987 11.042547081517958 7.921327292992885 0 0 0
368 1 12.413366699221703 13.180792567758004 7.377196518839962 0 0 0
490 1 10.455509054508 12.465043174018659 9.33221743465742 0 0 0
367 1 12.439112767464813 11.394278614695416 9.197761627087809 0 0 0
244 1 13.942040546700353 12.852394677250219 5.93235726880278 0 0 0
369 1 14.075928341780596 11.505497090424319 7.564427183276854 0 0 0
216 1 17.47741787881568 9.783923349231536 5.914719962527445 0 0 0
366 1 14.215927147865067 13.073605971281207 9.166502975341217 0 0 0
338 1 16.05707579690491 11.224285553119357 6.650613565318436 0 0 0
248 1 17.766129315165696 12.625163048939115 5.845782356758961 0 0 0
370 1 15.774710181548707 13.035972102561043 7.29876371027946 0 0 0
374 1 17.95501699642322 11.445954441512091 7.750928693884748 0 0 0
1301 1 17.21499495678105 13.047898552159555 8.89501030370038 0 0 0
211 1 15.778996533990512 11.320050482014489 8.969105431579257 0 0 0
379 1 22.51973252620246 10.939309138401116 8.809749500474787 0 0 0
373 1 19.277250897175602 10.953300886470434 5.874394234695985 0 0 0
380 1 20.916875261864345 12.992812438908883 8.825170595769308 0 0 0
375 1 19.821549669021692 10.765648997753733 9.126733120106053 0 0 0
252 1 19.48198258611358 12.844836331301916 7.442515840906516 0 0 0
250 1 20.787018921734347 12.725421608172203 5.4386770944036735 0 0 0
378 1 22.201963191293604 11.040199763896466 6.001752000712429 0 0 0
377 1 20.937276396455843 11.063998981029492 7.384709758948568 0 0 0
1307 1 22.9758468282346 12.611947096554598 7.242910507097302 0 0 0
356 1 27.26608888254715 12.769130278831588 8.80070553162021 -1 0 0
353 1 27.02177139363093 10.971570669794184 7.535941952146431 -1 0 0
382 1 23.909499722183458 12.609093035801564 9.112159655142136 0 0 0
256 1 24.303817347563683 12.800221534534426 5.524227096420091 0 0 0
383 1 25.47332080789924 11.108884308876972 8.881941051081615 0 0 0
228 1 27.301335161554075 12.685886077871231 5.776582268041552 -1 0 0
253 1 25.448034606347214 10.927312844314708 5.765568231191305 0 0 0
224 1 24.145841624419322 10.543274530565643 7.479553101958066 0 0 0
255 1 25.588729879895563 13.074293605180392 7.4505534827551605 0 0 0
417 1 2.521244095988349 1.9269783085014207 10.833150541912826 0 0 0
387 1 4.258235028421558 2.7435322898706316 12.884775006297271 0 0 0
419 1 2.12024663257223 3.702568629347303 12.393069232589072 0 0 0
421 1 4.03508204780717 3.6548287994691875 11.080845464959419 0 0 0
423 1 5.212032153175712 4.605853669851271 12.911357250252737 0 0 0
416 1 1.1135812854316025 1.9316191749963199 12.491168881427694 1 0 0
549 1 3.428291260992057 4.0767047093107385 14.072957111408426 0 0 0
393 1 9.147009016447543 1.073054474928941 12.821898538201275 0 0 0
390 1 5.804986762662341 2.36642902681844 11.055385197054507 0 0 0
300 1 6.879895982200474 4.342838062822155 11.247512735008 0 0 0
396 1 8.92058245333526 4.189003034110502 12.065126840444318 0 0 0
395 1 8.835727922878164 2.6704759059620313 10.779202742611087 0 0 0
394 1 7.608938414560212 2.6216885733344504 12.616483908996374 0 0 0
427 1 7.488691390982399 4.461041248762833 13.784567538868963 0 0 0
522 1 9.392447102610634 2.704462522903299 14.155806252150162 0 0 0
1514 1 10.779724256586569 0.9440653640296013 10.92601588190454 0 1 0
525 1 10.970287648210672 1.0482736650182858 13.934022754729515 0 0 0
400 1 10.706816936459886 2.495494922986767 12.346925699467239 0 0 0
429 1 10.458657438053859 3.908732698188293 10.613689919425477 0 0 0
398 1 12.492107155507995 2.4632122683463615 10.96782232072705 0 0 0
431 1 12.145881681358341 4.042947292984147 12.069595939390318 0 0 0
433 1 14.042705791903405 4.15396705053416 10.72087580742791 0 0 0
399 1 12.737758282066375 2.620063366876963 13.570086647721862 0 0 0
557 1 11.091139780561864 4.316580123875994 13.866421207460386 0 0 0
403 1 16.158094780545813 0.9613702040886629 12.588817376579447 0 0 0
561 1 14.283268484645093 3.9915247839009056 13.75507142016978 0 0 0
404 1 14.414241937733545 2.505674354190041 12.185350808645353 0 0 0
402 1 15.709355341024212 2.822331736104094 10.566960266529552 0 0 0
435 1 15.957191825642461 4.195676582989062 12.315866433300494 0 0 0
408 1 17.581230818604038 2.4996608508268694 12.358522387360065 0 0 0
437 1 17.311000575793063 4.559034650773142 10.259052156636466 0 0 0
565 1 17.385522571922223 4.541024913125039 13.960867505530244 0 0 0
530 1 15.838946010131522 2.614703584428705 13.879831351770045 0 0 0
526 1 14.220191843616428 1.2649550690201088 14.10270933274615 0 0 0
544 1 22.561971709189255 2.5664363604048006 13.600969534333698 0 0 0
534 1 19.080704841941746 3.0657758762995395 13.786596590142272 0 0 0
1654 1 20.5834450559266 1.163233683917472 14.08701724270044 0 1 0
537 1 19.107622457869834 0.96670614459633 12.156096417433348 0 0 0
444 1 20.590976956875185 4.494253214182846 13.728000967909622 0 0 0
409 1 19.113938287120167 3.1076797877793894 10.849137328978209 0 0 0
439 1 18.82316633979042 4.677343909438925 12.310274070828843 0 0 0
441 1 20.82504192899304 4.288035164748618 11.265803020387601 0 0 0
412 1 20.66019633778591 2.521521369812554 12.44451249220667 0 0 0
570 1 22.890597100299967 4.535731884114853 12.40411229663301 0 0 0
538 1 22.16010321296844 2.579797120504651 10.901497799795393 0 0 0
516 1 25.807727051232973 2.3464132915726514 14.163007573167445 -1 0 0
388 1 27.182863200530758 3.8815653510568198 10.680248255041855 -1 0 0
420 1 26.060944811178032 3.9110778997851026 12.313059491929309 -1 0 0
414 1 26.186074671035378 2.190110126613471 10.490236769106806 0 0 0
445 1 24.432862702527398 2.517263427166963 12.556227531816605 0 0 0
447 1 24.65190786704329 4.121611474714421 11.011475509858098 0 0 0
542 1 27.29806105202369 3.897124822475948 14.128964409256545 0 0 0
296 1 2.5151578769257577 5.794253809687613 10.971691877176704 0 0 0
424 1 3.5578487340360905 5.971212441930784 12.7902614654424 0 0 0
453 1 3.6403954776461775 7.649238373838834 11.197207207427825 0 0 0
449 1 2.4210439799094208 7.867739410460979 13.150777862486894 0 0 0
450 1 2.3810325163440664 9.49987472618272 10.901915773927326 0 0 0
456 1 3.994387652988396 9.559604291286306 12.399317301897396 0 0 0
455 1 5.0885936609848175 7.651286209940316 12.997704907819838 0 0 0
319 1 0.9886761888573647 7.899471974963334 10.901954960111183 1 0 0
585 1 7.339778513183948 7.581715211115085 14.01665084256216 0 0 0
588 1 9.37239671631137 9.129483337723801 13.453204993484224 0 0 0
554 1 9.358244938277176 6.172225297826402 13.742464165382522 0 0 0
422 1 5.398132357531002 6.252311647878384 11.163763730998978 0 0 0
327 1 6.697233821110063 7.910041388709026 10.935256341974993 0 0 0
428 1 7.257168963769739 6.148301778376501 12.429039478124466 0 0 0
426 1 8.472292288678876 5.637599458676431 10.535198213307588 0 0 0
586 1 7.691281437597121 9.223288685331154 12.352879971196002 0 0 0
459 1 8.682633285758019 7.338588191734121 11.92008658021522 0 0 0
454 1 5.724762335450864 9.610502970120171 11.021641140597122 0 0 0
457 1 9.077370713605744 9.290383719065256 10.545035085775355 0 0 0
468 1 13.907880243601344 7.54300670867927 13.996155154247564 0 0 0
590 1 12.381604645537688 8.936885442173834 13.929467011755769 0 0 0
593 1 12.667609786321544 5.649190741317952 14.054309567958263 0 0 0
558 1 10.740077375245152 5.867443041529664 12.188635242103755 0 0 0
464 1 11.168956748989913 9.273298523540998 12.260966594044008 0 0 0
432 1 12.185487207600612 6.007013072717897 10.550001986137957 0 0 0
461 1 10.622557511151236 7.813660715169862 10.612832323752803 0 0 0
463 1 12.293444803972472 7.56163985124969 11.732921306560167 0 0 0
462 1 12.442498066158256 9.581257019538281 10.52698713416452 0 0 0
497 1 13.87151437922539 9.278157365154202 12.435666714669242 0 0 0
589 1 10.916089303080398 7.502589832255781 13.461686531650335 0 0 0
440 1 15.599301317778995 6.0748685566882346 13.970473660880955 0 0 0
594 1 15.85669368269376 9.448425621694822 13.900790220160998 0 0 0
436 1 14.325340671146177 6.01056591468453 12.081282810506474 0 0 0
465 1 14.185349764346812 8.047485486830634 10.274058381262494 0 0 0
434 1 16.03789135689798 6.25764803959815 10.58890246501128 0 0 0
569 1 17.514572643050027 6.250434216566349 12.435265800716559 0 0 0
466 1 16.221927291823903 9.303929559761533 10.524406844700621 0 0 0
501 1 17.51205404180869 9.336172300627187 12.556649509208485 0 0 0
467 1 15.675828846387349 7.91565660817432 12.063566955861221 0 0 0
469 1 17.6060020401468 7.58322383164467 10.784453237475075 0 0 0
601 1 22.245120263123997 6.028193991811529 13.796620025651459 0 0 0
567 1 19.359904555755833 6.200301265645947 13.845703273551187 0 0 0
476 1 19.077428679426735 9.364261557546818 10.86483478218872 0 0 0
598 1 22.44214546662884 9.248146807665835 10.860150217626492 0 0 0
629 1 21.076429094214657 9.137760152747887 12.56333707122367 0 0 0
438 1 19.14460684376879 6.144939716877931 10.606510839037334 0 0 0
472 1 19.230679312879865 8.010136591120538 12.269312161997025 0 0 0
474 1 22.56765386235937 7.672325854128979 12.537065491416527 0 0 0
347 1 20.623846668312673 7.886811725833037 10.588367589728108 0 0 0
315 1 20.88954635441295 6.2452663753884625 12.112041456657117 0 0 0