LAMMPS data file via write_data, version 29 Oct 2020, timestep = 300000

2048 atoms
1 atom types

0.9657501062790885 27.386249893721093 xlo xhi
0.9657501062790885 27.386249893721093 ylo yhi
0.9657501062790885 27.386249893721093 zlo zhi

Masses

1 58.933

Atoms # atomic

35 1 2.4123924905339043 2.6047344491651687 4.299828303768621 0 0 0
40 1 4.599924127374049 4.1004252105638574 4.296485039018368 0 0 0
130 1 4.200491805484228 2.5290079601058273 2.682319450738972 0 0 0
37 1 2.6141620298569554 4.277476261412142 2.7069372292844394 0 0 0
4 1 27.120873319958246 4.672468058596279 4.301771587583323 -1 0 0
134 1 6.132095173997148 2.426261165086675 4.615084466267017 0 0 0
490 1 10.949065058283086 14.05994894158922 7.695364059028877 0 0 0
166 1 5.805840579965055 4.481370467764313 2.5505248367269973 0 0 0
165 1 7.437878834474488 4.301571764057485 4.760670442865914 0 0 0
41 1 7.218560754873995 3.0363761248808436 2.8697355348942803 0 0 0
169 1 9.05227343644092 4.138083373983863 2.668097451919955 0 0 0
138 1 9.203975605876687 2.858541974583975 4.286660171180415 0 0 0
391 1 5.815944029671011 1.0068724320923699 12.843771927757844 0 0 0
1310 1 3.2921949649295894 14.060911290512216 5.912470877743448 1 0 0
11 1 10.512306434781065 1.133898685402561 4.087840922118845 0 0 0
1388 1 7.159474282386381 1.0585223355923994 11.103850700387316 0 1 0
168 1 5.605635536626184 4.233830135987624 6.217949744968857 0 0 0
1423 1 12.633526964301332 14.083072458389774 12.88604062088791 0 0 0
1289 1 7.556727843098558 14.064876098940099 7.571589260490117 0 0 0
16 1 10.976276724203375 2.642834052533094 2.176578989665723 0 0 0
47 1 10.87658854693809 4.458673170585426 4.838492246300124 0 0 0
15 1 11.995889471132918 2.438971556971942 4.389556022614848 0 0 0
43 1 12.299838848618261 4.256222951902218 3.0565211327109294 0 0 0
1296 1 11.187198100918865 14.028556301975692 11.125770413536555 0 0 0
8 1 4.071270925509911 4.540482585430868 1.2517063224786216 0 0 0
1429 1 17.7633087730419 13.969634310517465 10.845976191492142 0 0 0
302 1 13.869882857798688 3.2127865612600575 2.603507596219435 0 0 0
148 1 14.08029508280552 3.886234518601199 4.688657186023452 0 0 0
142 1 16.221515704418465 2.447730886019646 4.579735418234852 0 0 0
146 1 17.762067230065295 2.7121238451025977 2.6750145949694693 0 0 0
181 1 17.721073261666746 4.534610778706927 4.480960133967633 0 0 0
207 1 15.759439213047429 4.252659262792859 3.108481580516997 0 0 0
150 1 19.39414865089671 2.182217602643893 4.291508081801414 0 0 0
521 1 8.198571490310675 0.9918470849533411 13.71092039600075 0 0 0
60 1 19.38610828754263 4.154737682906395 2.2590631910588796 0 0 0
55 1 20.921392665865366 2.5526091697890108 2.2209054826016796 0 0 0
185 1 20.663227946397203 3.904402150989108 4.076954406876122 0 0 0
154 1 22.57204235659559 2.2617797739594967 4.026329300700681 0 0 0
59 1 22.38357532940804 4.503009833332449 3.0659985440421584 0 0 0
1034 1 9.386326212610857 13.915117551496138 2.5837372569117454 0 0 0
406 1 17.361909490610596 0.9972870902598929 7.407010828126881 0 0 0
931 1 1.0160039901587798 4.6279066631383525 1.271518029359501 0 0 1
30 1 27.11951412207055 2.919590881881758 2.681691165233711 0 0 0
1303 1 18.871989416084357 14.022475402146709 9.448299461123643 0 0 0
157 1 24.143469816985373 2.56948771533904 2.451737215056895 0 0 0
26 1 25.71347894574113 2.6907744636077875 4.4559111294527085 0 0 0
33 1 25.79891270574734 4.4091943375342115 2.552927149426424 -1 0 0
189 1 24.26038655219795 4.267333961170275 3.920691922516941 0 0 0
1167 1 10.972904905691717 13.926404281148104 4.834899054739238 0 0 0
265 1 9.155616995766124 1.0159695481743314 5.973128564523916 0 0 0
63 1 25.869662582010957 5.673028829543568 1.0657777444413046 0 0 0
162 1 2.717856532132709 5.727613750283475 4.173470014273582 0 0 0
936 1 4.403557312034071 6.350143394718015 2.8467209755016967 0 0 1
350 1 4.090958227228677 7.872209719689165 4.341040828205269 1 0 0
99 1 2.3713729045770453 7.545067885518209 2.6871695173312453 0 0 0
69 1 4.809968003693069 9.359292449625773 2.5458083725100864 0 0 0
68 1 2.5720347489581887 9.35004058241689 3.9687651419542913 0 0 0
109 1 10.990155064055157 10.593408434002528 1.1526623310415753 0 0 0
1294 1 12.624457502913561 14.025041277286187 6.102923354972159 0 0 0
1402 1 22.325661949334886 1.2366010135561925 5.969480004349262 0 1 0
199 1 5.650996603414387 5.966202482980543 4.457328620331919 0 0 0
38 1 6.0343044134196395 7.469083448790758 2.7906661544463116 0 0 0
44 1 7.544670865119933 5.754766511853021 2.960993298031277 0 0 0
201 1 7.304351815771726 7.575297665723992 4.423262687165343 0 0 0
75 1 8.933301650682312 7.544065874302558 2.486781367885321 0 0 0
170 1 9.207197331294031 5.779524768669835 4.465964965479804 0 0 0
233 1 9.272409690373788 9.231531231541172 4.289271248839236 0 0 0
71 1 5.724838542644283 9.101650068281804 4.364663444589323 0 0 0
76 1 7.418188437227795 9.418333073934104 2.478383938160778 0 0 0
403 1 15.890084579314342 1.0743414938889833 12.35840600318339 0 0 0
136 1 2.69198898088995 1.0585841045380446 6.402922657150485 0 0 0
1048 1 17.090146732606684 14.098430231758316 4.244052333672148 0 0 0
149 1 17.579568241172964 1.1517483882533388 4.169133184910629 0 0 0
48 1 10.702961330881447 5.487580981273226 2.8292949509359255 0 0 0
205 1 12.34628681793534 5.637292274970401 4.498733799911985 0 0 0
52 1 12.366396801975068 6.983100383675506 2.74740956647441 0 0 0
202 1 10.815782223849366 7.339613909646282 4.450333644557489 0 0 0
111 1 12.239571410186313 8.789694518185016 3.96403508374681 0 0 0
79 1 10.703150366430707 8.856353319402071 2.6198969743331917 0 0 0
393 1 9.30470619614745 1.710958030970684 12.039893135759653 0 0 0
81 1 14.240574943620125 5.614261013970032 2.8854865769921476 0 0 0
206 1 13.988202383570268 7.32968751667606 4.174278023295955 0 0 0
116 1 13.890847197623685 9.007162464772735 2.5690722190953164 0 0 0
56 1 17.818139135116127 5.58907621336506 2.4501122710320313 0 0 0
213 1 16.09337297019393 5.928772471178521 3.8871171224272643 0 0 0
210 1 15.646691847483693 7.31858416178333 2.310572236951059 0 0 0
87 1 17.538812125237968 7.633544788848462 4.228978965094482 0 0 0
88 1 17.65218952800258 8.989402831692432 2.7083855547326223 0 0 0
115 1 15.692321985513281 8.955868713308348 4.247553228790884 0 0 0
1417 1 9.293136377081892 14.092996022000673 12.460476192967816 0 0 0
1175 1 17.642156918531875 13.689823267758271 7.760545247813719 0 0 0
182 1 19.07415679034884 6.118979653773788 4.35248988065125 0 0 0
214 1 19.130662561164446 8.948929740395343 4.279992867844428 0 0 0
89 1 19.071651756691253 7.351401032509988 2.667962663222988 0 0 0
58 1 21.117019585310707 5.8611756927851495 2.7543161260308064 0 0 0
217 1 20.99589287875138 7.843062546570787 4.128905914620848 0 0 0
91 1 22.495321405484898 7.883077678992004 2.5753108415543897 0 0 0
92 1 20.80139271975495 9.133294770438612 2.417703780128269 0 0 0
186 1 22.657037437033004 6.671026048222456 4.141319890550922 0 0 0
218 1 22.48707083516728 9.52864074758437 4.2596521399223075 0 0 0
1173 1 15.474570163306797 13.897912637549505 5.889083604958901 0 0 0
544 1 22.61071364079196 2.62921882295089 14.100036126623559 0 0 0
1306 1 20.50075347801071 13.588761864166484 7.72837792025736 0 0 0
144 1 11.896575635478042 0.9700739698841595 6.025250389815173 0 0 0
525 1 11.228764987926018 1.4235002458932566 13.97647978939646 0 0 0
135 1 5.599981047327324 1.2866398030901236 6.140484500465526 0 0 0
36 1 27.13873606219272 5.940929672564314 2.8045526355569583 -1 0 0
190 1 27.171241112009668 7.715430342394042 4.234025226964077 0 0 0
72 1 27.282327989922305 9.496864359879766 2.8324707254463926 -1 0 0
62 1 24.318572117148015 6.226723404743577 2.6008208829841086 0 0 0
61 1 25.467140400384615 6.163881114258512 4.3258714553626945 0 0 0
95 1 25.624157117418445 7.97312770037031 2.543578000817776 0 0 0
221 1 24.229512039122664 8.129358939529848 4.419531594726367 0 0 0
125 1 23.89688650227612 9.59319361346916 2.62671460257292 0 0 0
222 1 25.864929600920355 9.623432330550797 4.393401447403045 0 0 0
1431 1 19.22906949471672 13.835505023100493 12.67505088617593 0 0 0
67 1 3.911441357627372 7.890711079719566 1.3094823058969256 0 0 0
108 1 4.277314076906532 12.719633806996171 2.859024075630025 0 0 0
193 1 2.5691347590056504 11.219976177465856 2.7424350297740503 0 0 0
194 1 2.7213371868366796 12.994246087468055 4.246620539047123 0 0 0
226 1 4.1257609120633205 10.642651585140776 4.135172166238613 0 0 0
515 1 2.509068103557972 1.2306491321801796 9.52528043017163 0 0 0
1565 1 24.062450438640486 12.827254867691718 12.40670850122863 0 0 0
512 1 25.650990696898475 11.137685539385933 12.50706499372075 0 0 0
198 1 6.368610648728399 12.745590771612713 4.610458331390317 0 0 0
103 1 5.9413640502243545 11.337406415019423 3.088555560223358 0 0 0
229 1 7.794711740717452 12.488642773187209 2.876676864643721 0 0 0
102 1 8.004347375609797 10.749271649268596 4.3079885841163215 0 0 0
236 1 9.374247668530032 12.612736887522859 4.472258565106842 0 0 0
960 1 23.887840349869403 4.523491821496615 1.0708099144271357 0 0 1
239 1 9.786282415956435 10.747875314581886 5.974823879158133 0 0 0
178 1 15.574401090454806 5.567542695598432 1.0995184111094911 0 0 0
51 1 17.66441804263788 4.071693843027472 1.1711136580901658 0 0 0
177 1 15.484453854425968 1.5341911390642955 2.347090893781167 0 0 0
80 1 9.342579035917401 10.813988840146267 2.6670167509589726 0 0 0
112 1 11.305243873318304 12.488964220662476 2.810337606970105 0 0 0
237 1 11.061828326999038 10.771214129709456 3.9806995775777274 0 0 0
110 1 12.943962298220304 12.596258682651563 4.472618126174428 0 0 0
1039 1 12.698579838503578 10.971820624497804 2.759385694221801 0 0 0
65 1 27.03424025603606 7.700655891341636 1.289985358028363 -1 0 0
509 1 24.319216148098686 10.831325907285931 10.894632341343709 0 0 0
1500 1 20.45925295276073 1.3617028708803705 13.828735677474679 0 1 0
1043 1 14.652826304089372 12.378449332023068 2.510166160363525 0 0 0
238 1 14.476161846454877 10.731030350291544 4.075979422111998 0 0 0
242 1 16.077780900921727 10.425346498195983 2.601877400468526 0 0 0
120 1 17.334098493899027 10.762280512204457 4.320240321299778 0 0 0
248 1 15.513238875915338 12.608770190609912 4.410834576460886 0 0 0
247 1 17.11175328560985 12.380344744251289 2.984319415934816 0 0 0
1514 1 10.588412101640799 1.1765595991058098 10.422891140824293 0 1 0
510 1 25.695641096605783 12.698098220394684 10.957725836389498 0 0 0
940 1 7.308052735210774 4.186477901138749 1.147662831069255 0 0 1
119 1 18.898102850759848 10.840038223114666 2.7624024206247695 0 0 0
250 1 19.065330902917903 12.492952457867698 3.864481860982501 0 0 0
124 1 20.74444503487041 12.916699577344145 2.516838638017685 0 0 0
373 1 20.415391590752765 10.626051526671397 4.0528388539186135 0 0 0
249 1 22.352902204493983 11.425810754211975 2.66485768422252 0 0 0
128 1 22.261730824177373 13.02222421694053 4.213523698625272 0 0 0
381 1 24.0544271064911 13.763549044961332 7.4792144353601415 0 0 0
513 1 27.112221406744094 0.9705150338002753 14.011865519348238 -1 0 0
100 1 0.9756767741552572 12.76457813884669 2.920461130388203 0 0 0
234 1 7.550990021996168 10.985629783730506 1.0559971910199113 0 0 0
96 1 27.098886646878473 11.101509934119466 4.467901662420749 0 0 0
1024 1 24.030806389995515 12.652490504422303 2.5433761890830224 0 0 1
123 1 24.022776658192285 11.28253331677578 4.380868460363068 0 0 0
127 1 25.634298339291504 11.336963316500414 2.6453016563203944 0 0 0
254 1 25.720467817085034 12.776341654605014 4.380035746104448 0 0 0
531 1 14.115505507125444 1.070089642879668 13.650909946488838 0 0 0
77 1 10.449940355011307 7.430266842642579 1.0059973001249505 0 0 0
281 1 20.877186904976977 1.3430378392026916 7.742248716644414 0 0 0
1250 1 3.900884961571869 2.7323916843782836 6.0412486024580625 0 1 0
163 1 2.03020901554896 4.200756761302186 5.950235838732349 0 0 0
259 1 2.1926944846806204 2.9149814043582984 7.973243089160154 0 0 0
195 1 3.9473453597948835 4.036268504032055 7.685173655320813 0 0 0
291 1 2.4447502450395886 4.2356886401550975 9.28170850885556 0 0 0
167 1 4.135742825518028 2.632931334462778 9.27999301543995 0 0 0
286 1 0.9953804709740055 2.665191794902222 9.842494519982228 1 0 0
264 1 27.187453581899522 4.3450122289982716 7.346921939012411 -1 0 0
277 1 19.171445008381422 1.081443407424818 6.250089699736196 0 0 0
476 1 18.937969123319398 9.230742667488997 11.22135872365738 0 0 0
470 1 20.862463628642807 9.398614862963466 12.924220473153127 0 0 0
1305 1 19.00441953608988 13.828835710754346 5.742685383952089 0 0 0
158 1 25.333931438798174 0.9775538509032806 5.962700600919277 0 0 0
261 1 5.66286730777735 2.82263665839627 7.729272582762895 0 0 0
421 1 5.4383075675921635 4.369578648782484 9.577718955489772 0 0 0
266 1 7.320203407168047 2.592230042647655 6.263460382589217 0 0 0
173 1 9.0883254599822 4.545629618135717 6.595040964598968 0 0 0
262 1 6.84156912527349 2.7693919500666913 9.61214891396561 0 0 0
268 1 8.448271921391996 3.003032616259889 7.890847631976596 0 0 0
172 1 6.9983147593977675 4.613230706594607 8.111081750341706 0 0 0
299 1 9.224016211386202 4.5170404975451355 9.06552191996717 0 0 0
1532 1 19.786305424019552 1.1386738698085177 11.896734874496673 0 1 0
171 1 10.723664254330133 2.888620755640456 6.42312688599454 0 0 0
175 1 12.317287027718995 4.110385270638099 6.406857889749733 0 0 0
301 1 10.95491381563953 4.283498594152002 7.961386329165364 0 0 0
270 1 12.204136232450464 2.157145528956269 7.785509602641639 0 0 0
269 1 11.153243093022931 2.6903038213815553 9.39822527316294 0 0 0
209 1 14.273832344706163 4.200027583064178 7.256141895023922 0 0 0
272 1 12.55929429739653 4.484231320712302 9.013441924285825 0 0 0
20 1 13.673314365102216 2.403861301605837 5.927765979782951 0 0 0
303 1 14.253559913378094 2.697230278115077 8.694123667763542 0 0 0
1033 1 9.436754323813755 12.24047282460515 1.3454464714131338 0 0 0
274 1 17.935930922188582 2.9841612259849617 6.114214497275461 0 0 0
179 1 16.264838520546245 4.633097982432751 6.035572990500835 0 0 0
305 1 15.703999376977983 2.094696403855861 7.093059007346357 0 0 0
312 1 17.48529435569116 4.494020389946512 7.579299080818447 0 0 0
307 1 15.641040185006105 4.6104356440995335 9.025027941847162 0 0 0
402 1 17.140160092107017 3.0143844140973446 9.09401382312514 0 0 0
267 1 8.67917193531079 1.5209290268270477 9.382255785893399 0 0 0
1136 1 7.658711094867447 0.9813440597154397 4.327223163872194 0 1 0
313 1 20.85561473224706 2.391539653621466 5.897965726892418 0 0 0
143 1 10.18718474529799 1.3184366665481746 7.884135255462768 0 0 0
317 1 22.512225058828133 4.419691787131909 5.467774825885998 0 0 0
278 1 19.219253238603567 2.659734085903998 7.625544272754352 0 0 0
152 1 19.221948746478535 4.373817889694765 5.737375136955444 0 0 0
156 1 20.978521948501104 4.553330601781598 7.12769772651002 0 0 0
282 1 22.60064361824725 2.942437957489288 7.386162400765094 0 0 0
284 1 20.330950288315915 3.4368535897596675 9.254037243350997 0 0 0
311 1 19.015030750813807 4.873034465330275 9.561458457391476 0 0 0
314 1 22.206184430519034 4.466607610524182 8.928073484893929 0 0 0
1293 1 13.942429303253984 14.14047738858972 7.631731807278574 0 0 0
558 1 11.032684424055395 4.746889161138654 14.160336559008153 0 0 0
13 1 8.761061845425708 1.586822748661711 2.402199976684196 0 0 0
129 1 27.374716210397377 2.1626846587151363 5.9819046278109775 -1 0 0
31 1 23.813817296716657 2.578914391457367 5.631145509995973 0 0 0
64 1 25.895440008674424 4.222849617702833 5.714281178776578 0 0 0
416 1 24.169588966344712 4.312381305074253 7.326749469263221 0 0 0
191 1 25.591171346183618 2.6218857701667613 7.357482318272444 0 0 0
260 1 25.771067250406393 3.9683871380316362 8.97373110262537 -1 0 0
285 1 24.040175505140496 2.79199920787109 8.960571133453374 0 0 0
197 1 3.91080074805419 5.822345744429347 5.909928787080461 0 0 0
200 1 4.213460066800909 9.481881311030955 6.253280974031504 0 0 0
164 1 2.536639295269353 5.848385948936129 7.544691960865909 0 0 0
196 1 2.4547133639531524 7.515072481032387 5.974776479149671 0 0 0
328 1 3.7785054952318107 7.613036047663658 7.664906521139422 0 0 0
323 1 2.503806702358616 7.894617387048091 9.563801337734423 0 0 0
354 1 2.4460243549334773 9.453502742697882 7.77678986482156 0 0 0
295 1 3.8496703922841036 5.857942867412515 9.428093397985208 0 0 0
485 1 4.250555977286254 9.593305976792907 9.297529246817634 0 0 0
324 1 27.03296624382745 9.43521192661668 9.121803439122418 -1 0 0
289 1 1.0724308561108096 5.927817382933715 9.13710322976898 0 0 0
353 1 27.354343863575743 9.587514602137745 6.24225073589432 -1 0 0
361 1 5.927824648523105 9.652752905894785 7.683128223461572 0 0 0
294 1 7.394130286538547 9.382601673113356 6.103006080899449 0 0 0
297 1 5.376431194809202 6.161617492842462 7.772960320388026 0 0 0
204 1 5.304949994557275 7.638969700784515 6.200639406237257 0 0 0
203 1 6.9251006829848825 6.138564170628842 6.087475046004433 0 0 0
293 1 7.041593096145155 7.9701057034035845 7.410009597415128 0 0 0
298 1 8.826281165405568 6.720688359785673 7.588357197034012 0 0 0
290 1 7.149716230774859 6.4026619447504896 9.183057466603133 0 0 0
331 1 9.472348324484566 7.500772669207798 9.284170198424482 0 0 0
326 1 5.299113118027344 7.641639009244958 9.08195488413031 0 0 0
333 1 9.057352554755383 7.856330243601692 5.930285857918384 0 0 0
329 1 9.201889991079073 9.278385764309187 7.45044356573874 0 0 0
489 1 7.547265508435029 9.020187916873606 9.328444848720736 0 0 0
212 1 12.545671891106238 7.387951587256243 5.765707439284073 0 0 0
430 1 12.46869048080096 6.245076768569363 7.535427554717424 0 0 0
176 1 10.798304148986226 6.050516294156915 6.395404454234093 0 0 0
335 1 10.994167432200895 7.9138607833832495 7.60628119574051 0 0 0
363 1 12.33667978425165 7.883552874312023 9.352601348011063 0 0 0
357 1 11.470848723165552 9.403432248850832 5.568034647590142 0 0 0
304 1 11.067372318082944 6.08762952749689 9.357839645099931 0 0 0
330 1 10.618814468936993 9.350260536257759 9.708126430606638 0 0 0
340 1 13.959959521472465 7.624575758817467 7.4682969352455695 0 0 0
308 1 13.904462086917663 6.305278461202892 9.225385840841254 0 0 0
371 1 14.21129341084839 9.00386727641675 9.496953446466588 0 0 0
243 1 14.184011597136035 9.075675160849437 5.633662874994163 0 0 0
306 1 14.073221185611995 5.82871192586466 5.9683053585165995 0 0 0
180 1 15.714923840622374 7.416909570048218 5.765773814011274 0 0 0
184 1 17.548148848958867 6.260671652018094 5.863499315425184 0 0 0
280 1 15.880740559291889 6.112239767414876 7.465877246532228 0 0 0
341 1 17.69306762070963 7.771698060403081 7.778781712897297 0 0 0
339 1 15.81598288155889 7.781000398415496 9.242836499054338 0 0 0
337 1 15.615879599724185 8.86734725896293 7.46554665600573 0 0 0
344 1 17.283211196585334 9.297334906804519 9.271651998796239 0 0 0
183 1 17.24103243463596 5.89283491437998 9.090233760097039 0 0 0
216 1 17.542107788519854 8.84451922559272 5.931962868354047 0 0 0
347 1 18.89989490450522 7.5193792663462595 9.470695901216978 0 0 0
316 1 20.62654747553221 6.295983992227682 9.374328344523997 0 0 0
188 1 21.10384767260561 6.189793565519237 5.602837714366762 0 0 0
310 1 19.182112528328744 5.961384729768583 7.316710235796332 0 0 0
215 1 19.449357133309015 7.7765450887719 5.870990470709276 0 0 0
219 1 22.524012583592842 7.957029045240668 6.058826732522225 0 0 0
345 1 20.884895989995044 7.572492633532148 7.665073648288034 0 0 0
442 1 22.636786747984523 6.12492053037678 7.392624486499059 0 0 0
346 1 22.78372661675456 9.335672121208873 7.849978253791132 0 0 0
342 1 19.35383939649042 9.090220884713423 7.703392384241848 0 0 0
220 1 21.003129724437198 9.424027678016209 6.13647934154941 0 0 0
343 1 21.05093952762821 9.27747617518717 9.457227955127456 0 0 0
321 1 27.372465544027826 7.530819857834904 7.88532394603175 -1 0 0
161 1 27.335926624741315 6.134016956335421 5.881834258466839 -1 0 0
223 1 25.726982245530838 7.963551459145693 5.930967936634535 0 0 0
318 1 25.39903061377775 6.134437241563641 7.1409775594861165 0 0 0
187 1 23.91448706659964 6.105198152335031 5.591540551371979 0 0 0
349 1 24.124487024381416 7.719707045059966 7.582339397762186 0 0 0
351 1 25.61870108616649 7.738220164698177 8.94052320266637 0 0 0
352 1 25.541250329742898 9.859364704452483 7.628308403531801 0 0 0
251 1 23.984750759307122 9.524042238815886 5.9809810716315415 0 0 0
348 1 24.335714848223624 9.537183598642699 9.291360656585075 0 0 0
320 1 24.45418892845813 5.832338773609077 9.054241799916001 0 0 0
1281 1 2.5023845602163632 10.99351179408158 5.953311941482664 0 0 0
227 1 4.704923694089545 12.605027773330303 5.675042681117141 0 0 0
1184 1 2.6176149075828574 12.713667396946878 7.204931488399675 1 0 0
355 1 2.8074360908124016 11.079699429945425 9.23594836179322 0 0 0
232 1 4.320207708280819 11.260944931040939 7.621218442873505 0 0 0
487 1 4.157510813399632 12.817266568999583 9.176611022782053 0 0 0
225 1 27.216208922048967 11.328960245221245 7.625029643588191 -1 0 0
322 1 1.0334146488299538 12.81066486404445 5.784084939110821 0 0 0
360 1 1.1600731128410668 12.616535030596795 9.444410195581224 0 0 0
1285 1 6.08391214112604 12.482128639008856 7.279738813273748 0 0 0
231 1 5.816863689781715 10.835745929666453 5.888624165465363 0 0 0
613 1 5.896185823411147 11.367739038509225 9.437409412357821 0 0 0
1163 1 7.9423973946503015 12.059000019678708 5.991817906155322 0 0 0
235 1 7.527840776211187 10.750794561053123 8.0625012653924 0 0 0
332 1 9.26761916170555 10.986394153778308 9.240153354011655 0 0 0
362 1 9.349289343251945 12.303176368630632 7.499858200040498 0 0 0
358 1 7.865048699265832 12.633435448695776 9.40095063944464 0 0 0
506 1 22.44106574186974 12.736742215659145 10.646701500965827 0 0 0
336 1 12.522881834703075 9.156585560101751 7.478706659264247 0 0 0
208 1 12.938090915812852 10.77026492542324 5.879158552172864 0 0 0
334 1 10.892738925266277 10.774753422350939 7.721161389836747 0 0 0
240 1 11.347265773672312 12.125878033671349 5.9142207016814154 0 0 0
368 1 12.546036606779422 12.417870289825844 7.7930032330092445 0 0 0
367 1 12.436847095651096 10.797292883318288 9.116174449522683 0 0 0
493 1 10.847829400777233 12.729526776459764 9.313613493800055 0 0 0
369 1 14.244586966675243 10.662490459460862 7.964130346514347 0 0 0
366 1 14.29036471713948 12.207816433230152 9.324168577538732 0 0 0
244 1 14.154790024736867 12.32413160019425 6.412159644753845 0 0 0
370 1 17.368252778496295 12.209589886524748 5.650063009409933 0 0 0
338 1 15.719890845890202 10.562026908569306 6.119806584515249 0 0 0
374 1 17.403575524038406 10.810893142936301 7.559111772891812 0 0 0
211 1 15.798129765813874 11.96356846668577 7.541573153336775 0 0 0
1301 1 17.530534389875257 12.344648010327194 9.359822223886013 0 0 0
466 1 15.844192763339427 10.803166263191414 9.488741597107825 0 0 0
375 1 19.00202624500459 10.920745592662612 9.533829394389251 0 0 0
245 1 19.048690100551404 10.637073481831452 5.841549521077626 0 0 0
252 1 18.993347372715228 12.127891343642881 7.361747799261959 0 0 0
380 1 20.661164584282663 12.38225079615319 9.32034644889603 0 0 0
378 1 22.294676790655842 11.027679643479827 5.749400948979095 0 0 0
246 1 20.601133491249144 12.32429617519216 5.191787334906353 0 0 0
377 1 20.598982684230503 10.620815359261034 7.921562338501506 0 0 0
379 1 22.451497964209363 10.859753799229974 9.489445400179745 0 0 0
1307 1 22.207008154453877 12.303636142731294 7.550103776590282 0 0 0
626 1 19.17329683876743 10.921308140373457 12.709923644760135 0 0 0
382 1 24.086838173015764 12.70001172551461 9.401505482654292 0 0 0
253 1 25.451052122679467 11.226978709271059 5.994202434709876 0 0 0
256 1 23.690495422539197 12.786544998408106 5.85116183003565 0 0 0
383 1 25.986939234225904 11.316364679772546 9.192810446232563 0 0 0
224 1 24.074231109183053 11.186510679357498 7.787090228564148 0 0 0
255 1 25.775621330729663 12.60101806614004 7.447985526506469 0 0 0
131 1 2.8156855858772905 2.731696353309717 11.416681259254043 0 0 0
387 1 3.777346803331693 2.6238605044532535 13.239488924424881 0 0 0
419 1 3.9388472106785533 4.442511943771862 11.338419317884451 0 0 0
542 1 2.396084168777376 4.343470125780957 12.655139896986244 1 0 0
516 1 27.2438848341958 2.837104709472709 12.467421874532572 -1 0 0
296 1 0.9729880505111055 4.5524288946801015 10.866959828951737 0 0 0
263 1 5.804905103914182 1.107949305842535 9.622239051103632 0 0 0
405 1 17.739968603556786 1.0923609168200776 11.293270002481238 0 0 0
629 1 22.579720912601566 11.148991459593041 12.578007913264774 0 0 0
1419 1 7.165879119183466 12.562110248751887 12.388633313094495 0 0 0
390 1 5.418396130309042 2.7480131271850725 11.384477310746245 0 0 0
423 1 5.89243794579791 4.852765502384632 12.795152016289574 0 0 0
394 1 7.548427888130997 2.921566969940706 12.382598744183118 0 0 0
426 1 7.22773810545251 4.9651040561106 10.908536812032587 0 0 0
395 1 8.876068341352724 3.3751373570997956 10.728416379754744 0 0 0
557 1 9.134251430607982 4.289494598257303 12.708006691038316 0 0 0
422 1 5.644792755082977 6.248366881161955 10.96432869697887 0 0 0
1134 1 12.568606332707143 1.1197943253795417 2.529557503326068 0 1 0
496 1 14.352247294432068 10.768299198450276 11.291225073011445 0 0 0
469 1 15.974751119467903 9.330653019913123 11.157924080150677 0 0 0
400 1 11.129097493532337 2.856227771581099 12.248161881578188 0 0 0
429 1 11.148496190462685 4.562378549724944 11.108661700694515 0 0 0
398 1 12.991210102333973 2.6488236243797174 10.462894865156642 0 0 0
431 1 12.795769429275794 4.258998929943545 12.707056266377322 0 0 0
526 1 14.14850311423027 2.7655363996362836 12.328397562840312 0 0 0
433 1 14.36412352236467 4.556607691770689 10.55619189870815 0 0 0
407 1 20.61487249796851 1.6077485398191484 10.354515606072871 0 0 0
492 1 6.266161325858686 13.226432877427486 10.863543623622421 0 0 0
376 1 17.297694028607218 10.87897679225726 10.970674000761225 0 0 0
464 1 8.633842646021304 11.437843929956536 12.363145863941853 0 0 0
404 1 15.777892734335076 2.4125974568592046 10.695595176526187 0 0 0
435 1 15.82927526669753 4.184532932580286 12.363018482319603 0 0 0
408 1 17.449681267229487 2.7926709558019738 12.379003393341137 0 0 0
437 1 17.176132254093364 4.591411622494281 10.625803238033209 0 0 0
502 1 19.097658168962962 12.44054888220823 11.081160788434548 0 0 0
283 1 22.61492008288031 1.2980290037291997 9.57966843449795 0 0 0
592 1 10.729507077062086 12.2687600188844 12.852620422987707 0 0 0
1650 1 12.580924881172285 1.1465286722247854 12.150226615578688 0 1 0
279 1 19.081882304556114 1.1038443972733418 9.162863512297333 0 0 0
439 1 18.891761120879192 4.3879537593014835 12.50735719327199 0 0 0
409 1 18.842410267341755 2.88014283815954 10.649672099842588 0 0 0
410 1 20.516907190141513 4.216992779266553 11.194626464984331 0 0 0
412 1 21.621027433851587 2.400298947538639 12.241921621780842 0 0 0
570 1 22.373869989867444 5.002449832895918 12.505816249692657 0 0 0
538 1 22.577111573131138 3.4956895685785185 10.799606960454417 0 0 0
504 1 17.536225767229915 12.516653516518716 12.487056869210404 0 0 0
1 1 27.05595257536988 1.4213977946211618 1.210573919801147 -1 0 0
388 1 24.14170119585525 3.003854511244939 12.730838684467834 -1 0 0
420 1 25.68198307927563 4.579785793552324 12.586719365334606 -1 0 0
447 1 24.413525747415402 4.461480755025251 10.768205751730799 0 0 0
287 1 25.435395864337558 2.697593651948055 10.93616167248408 0 0 0
372 1 12.703807307496364 12.326048267958289 11.030298673677605 0 0 0
1171 1 15.961550991712468 13.642877626038274 8.885920599304374 0 0 0
1435 1 20.676788476155725 12.676539270913628 12.36236227353061 0 0 0
413 1 23.84515148120824 1.3500687014639912 11.554935344709222 0 0 0
424 1 2.5990474212880583 6.219457024254009 11.068730493110525 0 0 0
453 1 4.098452756571551 7.90802895111173 10.984059519615275 0 0 0
292 1 4.111353454357085 6.042420731485347 12.80566560368784 0 0 0
582 1 4.301628152414452 9.262401499354194 12.689313316136564 0 0 0
616 1 2.606209405711849 7.643663622960219 12.627406968355968 0 0 0
450 1 2.3331317497425843 9.272377799769382 11.160783845162197 0 0 0
480 1 27.178967785511357 9.50541172062827 12.69280739746031 0 0 0
498 1 15.674983962522804 12.664347071260435 10.993593470287534 0 0 0
499 1 15.964367724260935 11.065809104153471 12.525559243196865 0 0 0
126 1 25.505654714506676 12.919484035091601 0.9725761697002511 0 0 0
588 1 12.458568306429234 13.946661679575863 9.376581336110137 0 0 0
1253 1 4.298138176205444 1.0161279366275444 4.367392278568685 0 1 0
456 1 6.032354372396095 7.83563362346866 12.777817623994823 0 0 0
300 1 9.323223859998311 5.953601616732271 10.873217192239329 0 0 0
428 1 7.434585568730577 6.419910935790135 12.567137891273596 0 0 0
327 1 7.719223653340147 7.839364295630807 10.915430505849738 0 0 0
459 1 9.234035087254206 7.681936690594595 12.886081181011162 0 0 0
325 1 5.901024517186393 9.144586590616441 10.80661979736591 0 0 0
458 1 8.968866576601345 9.691221478936916 10.888898714812905 0 0 0
586 1 7.65195053393801 9.425213085591071 12.623015080848223 0 0 0
602 1 22.99392389908705 9.310254826851283 13.970841004326992 0 0 0
709 1 1.014401373172946 11.051723764201416 14.144397555787082 0 0 0
494 1 14.132030905446603 12.494302208978038 12.840295404315917 0 0 0
1291 1 9.203074323456823 12.626555986968837 10.830952223274746 0 0 0
462 1 12.459100353424708 9.223566176087198 11.166496330383524 0 0 0
461 1 10.788370928059479 9.716188112234942 12.734275886518851 0 0 0
432 1 12.55295099629165 6.559039700953391 11.18204248215503 0 0 0
457 1 11.005089067736527 6.1975262727768765 12.948217528234899 0 0 0
455 1 10.410659706141272 7.925610049837396 11.31114594503814 0 0 0
463 1 12.098497873034923 8.0116954784563 12.633913816803933 0 0 0
465 1 14.044094734154823 7.676437556056308 11.153057863869817 0 0 0
436 1 14.26871043476675 6.087590394126161 12.58390932387739 0 0 0
467 1 14.270907844400538 9.14371829548193 12.650022756006713 0 0 0
1254 1 5.856972486320445 1.310438600901087 2.332055687143327 0 1 0
1266 1 14.246935710814766 1.5431755587349487 4.30575778547649 0 1 0
501 1 17.531378094183385 9.31968994785082 12.874622369164227 0 0 0
434 1 15.684561066255064 6.1650846595161655 11.09356015243079 0 0 0
473 1 17.44618070703037 7.743137709733445 11.196214109290752 0 0 0