LAMMPS data file via write_data, version 29 Oct 2020, timestep = 300000

2048 atoms
1 atom types

0.865772537680936 27.486227462316613 xlo xhi
0.865772537680936 27.486227462316613 ylo yhi
0.865772537680936 27.486227462316613 zlo zhi

Masses

1 58.933

Atoms # atomic

1014 1 10.108529633389605 10.74715224865682 1.6896544356604486 0 1 1
1065 1 3.6049721636404803 5.030746324178214 3.9284344313341326 0 0 0
1614 1 3.335944873925785 2.735828326333661 4.262377761396681 0 0 1
1461 1 2.323299453009282 4.30832205518249 5.501534450846671 0 1 0
1754 1 6.259979843486212 2.0114720132388104 1.0250957387939 1 0 1
561 1 4.173907262716875 3.884499693552949 5.994690318665243 1 0 1
1889 1 24.914512797404754 1.806248492709508 1.6570419857670955 0 1 1
524 1 5.587544392879852 3.5814843735305657 2.394562635556582 0 0 0
383 1 23.953548347149162 3.4517456621158824 2.22977920293808 0 0 0
1510 1 5.186797616735939 3.519021501784264 4.330055443549688 0 1 1
1752 1 6.710680352945885 1.8270426948768463 3.2389293892516253 1 0 1
1854 1 11.342334916002548 4.12168149366137 13.437357495999013 0 1 0
1425 1 24.83116338031411 9.868654316638711 14.03075456819277 0 0 0
25 1 7.74252044677037 6.219180531429642 5.635325288169318 1 0 -1
1822 1 7.169564149836406 4.223286497801276 3.8828294719715255 1 1 0
2034 1 6.06096764848435 12.075889304772344 1.0602559309218795 0 1 0
480 1 1.7337750994268588 2.1949783855919005 5.624054040334775 0 1 0
365 1 11.100097221321834 4.777386180741559 2.6960132630213125 1 0 0
761 1 10.801828709631888 2.9309977190346626 3.8283833711776527 1 1 1
158 1 10.468951756750236 4.420392552068204 5.039159694324933 1 1 0
851 1 12.825877883467538 6.1971801138663 1.8490070722132859 1 0 0
451 1 3.268513663389743 8.401986087696226 1.4731826290541878 0 0 0
1909 1 21.106372710396766 2.072882625248936 5.801356440109609 1 0 1
731 1 9.443607432103281 4.421150593330822 1.052675278138783 0 0 1
1136 1 17.651455137954674 12.968146684488959 7.067580263209043 -2 1 0
1306 1 14.081789907419328 7.9844133283356635 1.8937504149603255 0 0 1
1679 1 16.931867468092346 3.979170201129297 4.720146482062438 0 0 1
841 1 15.305232208321355 4.387533560615699 3.6194057574973093 0 0 0
1098 1 14.164039826020034 1.9500848154555368 6.036472849207617 0 1 0
1959 1 14.888408487420982 4.059113204464358 6.2469539811363735 0 0 0
1756 1 16.377771088849425 4.958869429858139 8.194291607130943 0 1 0
1202 1 15.59636092408423 2.139409477581734 1.9692533859734047 0 1 0
316 1 24.984303872321703 11.766531485640499 10.959336648074904 0 0 0
895 1 15.443363848032318 2.261772237883165 4.315569273734242 1 0 1
744 1 3.4904320753591014 1.8620544489906123 8.691968043256054 0 0 0
683 1 12.479109262286784 4.437890159635909 4.163948736349503 0 0 1
1081 1 17.26909544840111 3.011092405867431 2.626550025861188 0 1 0
1016 1 7.220967453618879 7.257635626468667 1.5509768884303141 0 0 0
90 1 9.089613383884869 12.697561183534443 10.592393264231085 1 0 0
1371 1 7.683083760047032 1.1584978910811579 5.7497079069701 1 1 0
1489 1 18.575423848499128 2.0199926056320887 1.5370562227209015 0 0 0
512 1 20.176306873155404 2.591889888943766 3.3914999550601723 0 0 0
1168 1 12.505788884010554 2.1406847232219968 2.4682301799598765 0 1 0
1630 1 9.623760533221919 0.887761209497152 11.311812006003471 0 1 -1
1359 1 22.33169010753222 2.640131911606897 2.9877735241729004 -1 0 0
1373 1 22.67621404885133 8.93036599704407 2.9620764221228857 0 1 0
979 1 19.203916147480285 4.429297157196418 3.0394409415887442 0 -1 0
667 1 7.756661277921323 13.945558153634941 5.834170407062234 1 0 0
473 1 4.217422417139604 13.918176079883965 1.0448685655616985 1 0 0
781 1 20.39325539836776 1.414997835044156 12.7421013682408 -1 0 1
1529 1 23.249700744526333 5.120368629303826 3.8389621144491612 0 0 1
1672 1 21.460109827409102 4.167945064162924 4.670177509703926 -1 0 1
819 1 24.236152481735825 2.302056395624858 4.130793473123505 0 0 1
1946 1 7.518100979150536 12.128154707774499 14.112009175016802 0 0 0
935 1 25.425968652294948 4.717632621230221 2.8610434719549644 -1 0 0
403 1 2.4652609832839723 1.6745330475612599 2.0554865853132958 0 0 1
1384 1 27.340890611904044 3.5158899137291235 4.595728722657636 -1 1 0
2048 1 26.378491992365117 1.7673459820144435 5.401644227110293 1 1 0
1166 1 26.34963294997179 2.59692587969345 2.873160166426045 -1 1 0
442 1 5.106801711518341 7.235629237065541 2.2728027611029242 1 0 1
248 1 25.962473540624895 9.34714879144983 4.270044551557202 0 0 1
1686 1 27.12366945085451 7.442418439344455 5.023201520268435 -1 0 1
828 1 5.582157479135952 5.851435137279634 4.091108630475955 1 0 1
916 1 2.366018198580596 7.610530363161919 3.6808101401810815 0 -1 1
1485 1 27.195003016130435 5.442288127502504 3.9960863835784943 0 1 0
1089 1 27.095263509388232 7.341118857474698 2.91605527647046 -1 1 0
635 1 5.749430606821228 5.2646570691356205 6.439157855335617 1 0 1
1593 1 10.889992701599182 1.0021074230566598 5.902042172198798 1 0 1
1982 1 7.075851090052426 5.269781543003914 1.7454205714391189 0 1 1
1394 1 10.998245501840888 13.758988128142837 13.872244257098371 0 0 0
1617 1 7.250388584020421 6.8110228244054065 3.6535739957823576 0 0 1
814 1 5.553237429917835 8.075578172380244 4.156576659373731 0 0 0
184 1 9.064379773412004 4.425751235769091 3.249024177305531 1 0 1
1648 1 9.447176791957308 8.631559104235343 2.7816637214782274 0 0 0
1563 1 21.354100850568333 14.026793635930895 10.880806775592392 0 0 0
245 1 11.0005637650054 7.318772784976085 2.5511162626877977 0 -1 1
1784 1 10.649061260647306 8.44720750167259 4.760980953892494 0 1 1
72 1 13.78803743157681 6.156826736050121 3.5524914494678215 0 1 0
1508 1 11.609625976517245 8.893562875799715 1.112193374038314 -1 1 0
502 1 13.853657746630576 4.158234311119149 2.270694269259164 0 0 0
1937 1 9.166887682249554 6.602748301652608 2.2839469366940444 0 0 2
918 1 16.947785736170104 8.33011146927227 4.037932943001946 0 0 1
939 1 15.379929098943538 13.961000954958108 11.915501229092706 0 0 1
758 1 14.879364538889538 8.35394812482728 4.389370608096273 1 0 1
1984 1 16.15256613703098 7.864316707625623 6.443221819721235 1 0 1
728 1 13.58098597445175 6.620819576050134 5.542969681882121 0 0 0
172 1 12.695845180238733 8.009854905230924 3.719726843957304 0 0 1
1419 1 16.015822601148553 7.320967879320879 2.4391586825802216 0 -1 0
1667 1 16.038692398060874 6.34628303648986 4.599919175262164 -1 0 1
542 1 18.207345563128335 5.844320060066962 4.53288350779077 -1 0 0
1122 1 1.2546386764575268 1.8132408289069304 3.644930615575164 1 1 0
1496 1 17.449119459470143 13.5898283185515 4.723884102573866 0 1 1
1058 1 19.031546611067373 6.820696200363753 2.4082635639003316 0 1 0
649 1 19.14252045267023 8.237958153272945 3.9067263053502845 -1 0 1
924 1 16.912845609159 5.470713740673145 2.551148179904173 0 0 1
1078 1 23.490674402766725 10.478594346628086 1.4732542062546945 0 0 1
690 1 22.169374607955458 9.208251594753504 4.883205921065099 0 -1 0
537 1 21.28865420714295 7.498801649763717 2.3043193607126886 -1 0 0
449 1 21.747121357503786 9.528065487488602 1.3636356341474636 -1 1 1
195 1 22.069302651428252 10.911352959178574 3.173783651132844 -1 1 1
922 1 22.430348259582964 7.052126929927384 4.30863041854522 0 0 0
462 1 25.785851000387225 7.295383087445098 6.883021482895675 -1 1 0
604 1 23.346562555616856 6.117593532264203 1.6104009558273131 0 0 0
1116 1 24.117332916749405 8.114272926254607 4.9603546379376775 0 0 0
1161 1 25.025434604649316 7.200063971162268 2.793260691086532 -1 1 0
869 1 24.10615558358784 10.429816779026467 3.9929428157695153 -2 0 1
1377 1 24.958713714743283 6.408311589269147 4.999571098703592 -2 1 0
380 1 24.850809042120815 9.239781410177773 2.252300329727691 0 0 1
266 1 26.023933990236777 11.566069352777403 4.616839016198938 -1 -1 1
1228 1 27.289050636233927 9.637514370471079 2.753691900426025 -1 0 0
1513 1 22.81468107416582 8.09040947336338 6.500531054427316 -1 0 0
1103 1 11.418230342054361 13.511525473795873 4.618767528757128 0 0 0
1149 1 2.9092899053634813 9.738789796812837 3.011236072577554 1 0 -1
7 1 3.520379479580268 13.158529684913447 4.675034528510229 -1 0 -1
1750 1 1.367603451944111 11.6277187807325 3.146450615912796 0 1 1
51 1 4.904778778938316 12.291134977112664 3.164918411597963 0 0 0
1050 1 1.5280911588407207 11.856390601869592 5.743826876207917 1 1 0
1979 1 12.367343843108042 1.1174376425912786 9.762374866115419 1 1 1
460 1 8.398053400469433 2.6541551942800474 2.1914095013682227 0 0 0
1947 1 14.22489906179933 12.251170249959985 13.30818666245053 0 1 1
762 1 10.575166713929518 12.582215652260567 6.8871753209987565 1 0 0
765 1 11.13645815662435 9.876225775096467 3.284702931002469 0 0 0
954 1 7.434285793145422 8.854502863697746 2.9107348764260568 0 -1 1
1189 1 6.344356882257657 8.070106104066937 6.289587909872062 0 1 1
45 1 1.578718510646038 1.4603501898320062 12.550601647968017 0 0 -1
1681 1 6.806285513204183 12.801819833123835 3.9434783234875344 0 0 1
1720 1 6.624280672658292 10.764763697981342 2.918140231664618 0 0 1
22 1 22.929507023841552 0.9865803665099177 6.954986690212933 0 0 0
1106 1 8.106579113523978 12.018954351770747 2.0101245823092135 0 1 -1
1204 1 13.002650847818515 9.778748992691195 2.959052973776269 0 0 0
478 1 12.326448549268356 11.418690619459326 1.8171012066790624 0 0 0
660 1 12.920483141943214 12.712356468018594 3.4444886119134117 0 0 1
1438 1 10.41746006865751 12.33449613050756 3.0334603521688344 0 0 0
903 1 0.9804977829143781 8.537626860578808 0.8961920290753446 0 -1 1
1104 1 11.785864080601254 13.58282974543177 0.9649651437963741 0 1 0
400 1 17.096659448358874 9.726414517422816 5.767250885061442 0 -1 1
1914 1 14.481960211519702 11.345706862670866 3.4112366850923945 0 0 1
439 1 12.330927283427656 9.629876291569573 5.318788204875128 0 0 0
768 1 12.801798905928655 1.3905298483862474 12.053528798170657 1 0 -1
535 1 17.028436238977623 13.18250661530274 1.0409050137578062 0 0 1
2018 1 15.443108506706947 9.60493385052335 2.8645630500974133 -1 0 1
1534 1 12.767272382896563 14.133040112620991 9.206673662621812 0 1 0
1391 1 14.038657811176273 13.572804382705595 2.0443443114348296 0 1 0
274 1 19.470236122023984 13.440689095472237 1.0666232797198052 0 0 1
1157 1 17.792413403041145 10.457120939852503 3.7247158853176763 0 -1 -1
835 1 18.66773906659171 11.407886229905069 1.8768982846060145 -1 0 0
722 1 19.64013597604847 9.358305521022288 2.1338601956111667 0 0 0
632 1 20.29974189855721 13.463165829892993 5.797979566793725 0 1 0
1079 1 20.28586214492298 10.2401461167965 4.005147226577547 0 0 0
339 1 16.756417084226626 12.092649841407615 2.934134361695617 0 0 0
1006 1 25.267684484805354 1.6954612096276704 13.351027882655126 0 1 1
1332 1 21.029187970168422 12.612431474452386 4.132241517737022 -1 1 1
1818 1 10.001751013187324 11.780380006720824 14.15049037131587 1 0 0
697 1 23.717289104011595 12.328593314026046 3.003389661159653 0 -1 0
1270 1 20.770021442451945 11.354811465464397 6.195172845914342 1 1 -1
1517 1 10.839477184888336 6.633752063640452 0.9866880900831229 0 0 0
1535 1 19.147415580644864 12.109150847700798 3.6566113751869223 0 1 0
615 1 23.09741745779223 11.738612160605383 5.1467980759375305 -1 0 0
1203 1 24.630548531573076 10.201263648609066 5.978146761028642 -1 1 0
1633 1 25.981396137849515 13.155716572501099 3.497860445694467 -1 0 0
1201 1 26.056269615976426 11.396550669964837 6.873324118377394 -1 1 0
483 1 25.549201638041694 11.27883824976431 2.4500086925450697 -1 -1 1
445 1 3.4086820581409416 12.197150924896452 12.369772537111283 1 0 0
663 1 24.57392064235437 13.01031574175984 5.544968489043592 -1 -1 1
39 1 1.1736079698573958 13.232203306024504 7.216569930518368 1 0 -1
52 1 26.763722632000704 4.319803218737855 8.761486020059689 -1 1 0
472 1 1.900151433334358 2.4865374027865266 7.505252469142537 1 1 0
318 1 8.113525843721849 1.4835744029650617 9.963818358623053 0 0 0
42 1 3.3440222846516012 3.667569958939512 1.7393583212015142 0 0 0
1736 1 5.751082471005021 2.587422363969612 7.606986909297678 0 1 0
721 1 26.551935936624794 1.2688429714742684 7.388874487513883 0 0 0
879 1 1.5905009184223253 1.567015121391783 9.465153946364467 0 0 1
310 1 1.9385029313052575 4.676110287026663 7.540010759768155 1 0 0
234 1 4.009033319536041 4.170903945467151 8.340473976011705 0 -1 -1
454 1 6.695571978253349 3.3260652546502874 5.978484489799229 0 0 0
1141 1 4.727714690181744 5.481050863804761 1.5883442899027216 0 0 0
1641 1 5.802789576328251 1.1800871514926063 9.173185644544821 0 1 0
1882 1 7.610463781631717 2.346637335278601 7.739748630303466 0 1 1
937 1 6.472578520213083 4.938082270142119 8.269951833748284 0 0 1
1766 1 8.55060564563653 5.387482882960294 7.66791663817031 0 0 0
1922 1 22.393312481729993 11.957120079433325 10.58096132232579 0 0 0
125 1 8.771154084526543 2.900777067241737 4.5499384037426385 1 0 0
598 1 9.3904235193801 2.664808425426527 6.320499129161102 0 1 0
1646 1 11.75085349517307 3.01568730953806 5.674593176842165 1 2 0
1299 1 8.820219553497328 4.6375912269646395 6.067642509048132 -1 0 0
1217 1 11.60945512209449 1.9126521258878493 7.8307859910065565 1 1 0
1054 1 13.267388329803731 2.555498033388236 4.3520091045150515 1 1 0
1246 1 10.578386375419768 3.9028940893059216 7.609325931019743 0 0 -1
295 1 11.960825255869013 3.5746172916967125 9.616109244059434 0 0 0
1271 1 13.941033167177242 0.9889133931197758 8.033246986237982 1 1 0
1940 1 16.68305076569481 1.5527112821587692 5.98850181544597 0 0 0
117 1 15.470652439024091 2.8093531050509624 7.879788430672206 0 0 -1
1173 1 12.494106779840664 5.22414591361093 6.293368733894439 1 1 0
496 1 11.758317636351528 6.045012772423769 8.540811022201968 -1 0 0
81 1 20.721319024470755 5.830386543232343 1.2006762331319576 -1 0 0
213 1 13.141688986487269 3.0875959297294973 7.534519550301566 0 0 0
1021 1 15.289805915811158 4.339844330215987 9.621293778736616 0 0 0
32 1 13.493375204046743 4.810558912890768 8.47224990039933 1 -1 0
326 1 2.621226598911543 5.959414951046792 1.7982407091716666 1 0 -1
822 1 17.84829930681332 1.9902761325794827 4.24117817981796 0 0 1
1139 1 17.498587262002026 3.5524657137237816 6.774612278510388 0 1 0
990 1 17.57451032374214 3.362110382899185 9.286553942114102 1 0 1
729 1 20.86901353323639 3.789487007229929 6.895855378159253 -1 0 1
1317 1 19.78676367076157 2.637361957574192 9.075093445284098 -1 0 0
1311 1 18.71142447743714 4.425044728577078 10.844408905194143 0 1 0
14 1 19.711411606781784 5.99526502171245 6.262004027099861 0 -1 0
1179 1 16.641036334273473 3.110354526503035 13.419384887485466 0 1 -1
1730 1 17.75098782852396 1.4124793845185462 7.930468668214914 0 1 1
655 1 3.5514880273459823 1.5557200147875125 13.772620425043677 0 -1 0
341 1 21.79095702013543 2.4669521927162235 8.210103911375995 0 0 1
337 1 23.075283025057487 4.056779665025039 7.427245763337548 0 1 0
741 1 23.077432880313783 2.961926690913993 5.89325389836909 -2 0 0
989 1 20.958835651786927 4.7018959063307815 9.219681722493425 0 0 0
1321 1 21.933537430659637 2.0840531177718487 10.30335698111076 -1 1 0
1367 1 18.76161262118552 11.185774147972927 13.212285814376342 0 0 0
1390 1 24.6682497593509 2.1284022901040602 6.920105530457676 -1 1 0
1131 1 26.300351347891205 2.3843282480682007 9.180023976840058 -1 0 0
1070 1 24.53361538078459 5.456745441251173 6.992195406922563 0 1 0
1933 1 4.376817509221437 1.888454247750527 6.442069502662478 1 0 0
627 1 27.14135025237502 5.33902249231281 6.013323785035408 0 -1 0
141 1 26.729577437226663 3.241424603277081 6.883051723805542 -1 0 1
1036 1 25.323439228964034 3.9317387943060247 10.622502033119464 -1 1 0
1224 1 23.893301909479607 2.2494999510551863 8.99268515134925 0 2 -1
1932 1 1.7746657395538925 6.81502784554647 9.85910789326001 0 1 1
1498 1 4.16057815300322 7.995842403570513 6.774115257618684 1 0 1
600 1 2.185060825409082 6.6646416591497095 5.508278583484632 1 0 1
1806 1 1.9173951543481451 9.116464723637005 9.13370729221176 0 0 1
277 1 4.191941614869375 6.515819351866244 5.360726279080683 1 -1 0
1987 1 1.3564680744989708 9.6803064006754 4.90749442388799 0 0 0
1169 1 3.4995125041707786 10.811558540435593 8.29437179817643 0 0 0
848 1 3.5148158642101035 8.711609365449416 5.016080908941609 1 0 1
2026 1 3.6981219992597842 5.825627524530369 7.21492546976635 0 1 1
27 1 5.569227750086349 6.753178436359306 8.350260105773176 1 0 0
1086 1 4.545595912034969 11.898989499096812 10.889531644171376 1 2 -1
648 1 9.729000529639972 7.129385704192128 8.480603791036364 0 0 1
565 1 7.627282213646392 7.341719016933116 7.807080312586631 1 0 1
1077 1 8.257793158337847 8.109836017694317 4.978966362284025 1 1 0
1354 1 5.407664597662935 9.169379404231806 8.03970133526116 -1 1 0
1082 1 7.554027532903659 8.63077677107622 9.400320511175202 1 1 0
280 1 9.454107137351507 6.382658342542532 4.357616660638799 0 0 0
1809 1 10.506685426223447 5.970976958833474 6.686438754713795 0 1 1
720 1 9.26432300429336 7.79846796939842 6.796837717703222 0 0 0
1821 1 11.647898919072514 6.202024282341756 4.544894415061947 1 0 1
408 1 11.286158780728718 10.492852576121887 7.261213309277659 0 -1 0
700 1 11.872616640448609 7.701019767945739 6.521350089361434 0 0 0
1417 1 11.389643008987687 8.694691249801284 8.152407813692598 0 0 0
215 1 9.164732659461396 9.565568911342563 7.884811252376624 0 0 0
580 1 14.157183051116151 8.378266629972382 6.72200018141864 -1 0 1
1426 1 15.237812314135882 6.329592483483754 7.224828831247232 1 1 0
1902 1 13.34277746258802 7.01421627439604 8.014782318893886 0 0 0
177 1 16.118860717533217 8.29108111749752 8.68843175145853 1 1 0
1064 1 18.026282285224255 9.481339550056413 7.710082977504582 -1 0 0
696 1 15.472181722748472 9.917126339316665 7.281185814206265 0 0 1
888 1 14.136309429572925 9.094507258150774 8.772813553712535 1 1 1
437 1 14.422891957630737 8.028862931873734 10.911160399894403 0 0 0
1175 1 19.21604725172907 3.7369082025965663 5.436385188238147 0 1 0
1949 1 15.270821535160959 6.6314979068525925 9.507554758724144 0 2 0
861 1 17.230873879545253 5.3929951372505185 6.3748991104789905 0 0 1
1996 1 17.501277602769417 7.012673679450039 8.300205823775169 -1 1 1
1668 1 18.860113147253447 4.600522049080691 8.274298464371372 0 0 1
1492 1 20.621093334004133 8.573918702463047 9.939290546402363 0 1 1
877 1 18.591645598706876 4.955006144040442 13.033656278044633 0 0 1
244 1 20.22734698936761 6.117260506096077 4.063442395430908 0 0 0
1691 1 21.546575222955752 4.367618356147316 2.6307148874615685 0 1 0
751 1 21.460163741170035 6.667232920591042 7.494346837451937 -1 1 0
1512 1 20.898185362308865 7.941674066063361 6.034968013381359 -1 1 1
1034 1 22.390937524458046 5.662156815886795 5.941537466758513 -1 0 0
303 1 19.613464157171645 7.611219650937831 7.8575364989909 -1 0 0
484 1 22.596518364169974 10.230530306436178 6.6144569938152245 0 0 1
675 1 22.463720000520514 8.387748753295739 8.794273233437359 -1 0 -1
1251 1 22.994613290645876 5.995737258483185 8.483588488771993 -1 1 -1
1868 1 27.17391313980376 6.283084385212329 8.227132994822922 0 0 1
1401 1 25.282604105331863 5.9812061133682155 9.434594521483765 -1 0 0
1874 1 25.525125173232578 4.242865406365772 5.39429461571787 0 0 0
129 1 1.4617829870346533 7.845067310094606 7.058875580789339 0 0 0
1659 1 26.272895163388515 8.498374522645733 8.727323103166928 0 1 1
1734 1 24.80885737904918 4.124567087495574 8.696672334042596 0 0 0
574 1 24.297281374213426 7.442741728537716 8.040405732145263 0 0 0
17 1 25.963654916665348 7.43778654041777 10.788125476133066 -1 0 0
190 1 24.991075588143936 9.633871764089285 10.290568224906957 1 0 -1
793 1 3.4768045188120826 11.544333210503181 6.379719677529651 1 0 1
1164 1 26.57502945408205 9.547396800001676 6.847514926619231 -1 0 0
1177 1 18.92377963259461 5.062440274740325 1.0521485935479613 1 0 0
1588 1 3.5201729052497943 13.543855301642601 6.637461965077085 0 0 0
986 1 2.5832626437256954 9.536972701006599 6.942386302959041 0 0 0
193 1 2.5749021791118976 11.624431795287803 9.728927954456497 0 0 0
516 1 27.280356851325624 12.700949729089881 9.344067653650272 0 -1 0
251 1 5.0842595310421705 9.505814363819562 2.825548360598688 1 0 0
2013 1 1.3205208428193544 11.112007983967676 7.976108193544019 1 0 1
1067 1 19.246991781297368 1.9259535681286422 6.315059446935373 0 1 0
1585 1 6.104920774042566 10.144979568046196 4.851239204461642 1 0 0
1873 1 4.8636635027366975 10.273908374178605 6.559601412241029 0 0 1
1388 1 5.480999014013555 12.099519125377249 5.655057858404944 -1 1 -1
882 1 8.731784896775071 10.610175577436264 3.423306449321255 1 1 1
508 1 6.975234179363943 10.665315770243527 7.974794324429831 2 0 0
278 1 7.729667064907292 11.804508776644655 5.662075046177538 1 0 0
95 1 5.183824593895649 12.345496123325626 7.996948177226568 1 -1 0
267 1 9.62048472461076 10.272116561626177 5.613835308161491 0 0 0
567 1 7.78173805141283 9.753994915724665 6.317234994489405 1 0 0
656 1 9.39964409046163 12.624325672885385 5.048971459942121 0 0 0
26 1 11.309388756405484 11.48926681684305 5.040279737022904 0 0 0
949 1 12.397769658712908 10.3352296310411 9.453988802848444 -1 0 1
1376 1 12.74194212742969 12.224915633681404 8.444929485248519 0 0 0
723 1 19.980145685690516 12.580467512950044 12.304681567588338 0 1 1
1724 1 13.750774523595954 12.027794906898475 5.140072627882213 0 0 1
292 1 10.446613964347593 1.9293926116501234 2.0076793183438557 0 0 1
1 1 13.423443454323836 10.556428134923282 7.0976898552776495 -1 0 0
2036 1 14.430411150733425 9.985271055344842 5.220612058017919 0 1 1
315 1 14.490142796259079 11.357892154189233 8.842488774904753 1 0 0
323 1 15.062485500207869 12.373906809013747 7.254976963006162 0 -1 1
653 1 15.904878909242749 11.60826915605319 5.56142833099819 0 0 0
2041 1 18.52151868270293 11.70519041760674 5.726593341933639 0 1 1
519 1 19.258166982154187 10.970985771072069 7.837900306493153 0 0 0
387 1 18.19916506663747 7.335278404899494 5.968096051315622 -1 -1 0
5 1 16.494050724368527 12.765388186558306 9.145005571159864 -1 -1 0
1154 1 18.44637164929627 13.28090915060603 9.707582848735248 -1 0 0
1794 1 19.847347592850777 12.97992890377168 7.780842883426912 -1 0 1
760 1 17.282756574065527 11.265301245342217 7.788523931892441 0 1 0
1694 1 20.04471503388456 0.9167323264549907 10.22564089052828 0 2 0
372 1 9.205476227920059 4.170377380559842 13.086930809504462 0 1 0
1870 1 3.9246225934727015 10.996665175611945 4.178651560910319 0 0 1
1958 1 19.183051301109042 9.399379167134228 5.713315441457525 0 0 1
1381 1 20.681177672769234 9.273327437914764 7.394966039539134 0 1 -1
1088 1 21.108634810899424 10.68623414601491 9.305596232633118 0 0 -1
725 1 21.862691349745273 12.092817482015532 7.887226945467481 0 0 1
1225 1 22.18436893224494 13.387965287756394 6.296093988455951 0 0 0
299 1 18.797514814030936 8.098625071013107 13.750670794041906 -1 0 -1
1685 1 17.5101423557824 0.9320849809084574 9.858962969283404 0 1 0
1289 1 25.003270586064595 13.318347292880551 8.926118439029613 0 0 0
852 1 25.739538913201997 11.036572639294018 8.921230374184923 0 0 1
236 1 23.679778994479264 10.775167498741455 9.188275690988684 -1 0 0
691 1 25.815969279529728 14.157483439440476 10.701326383675367 0 0 0
501 1 24.342073025254944 9.281128607002012 8.050854051303755 1 -1 0
1185 1 23.955089124087582 11.982163144069155 7.395706571374729 -1 1 0
262 1 22.765913110494267 13.544419778465954 9.112760986312594 0 -1 0
783 1 1.0211330017718316 3.1568435383595363 11.177055800516056 0 -1 0
1480 1 20.388076875990247 3.0590643926638 1.3752596069348002 -1 1 1
1272 1 3.189493497587835 9.302609019127132 13.123321850160051 0 0 -1
1705 1 26.604709951911698 3.248317231579885 13.396341808705108 -1 1 1
1570 1 26.84363075290767 5.096182926766321 10.937157612145109 0 1 0
1153 1 3.9484294392893577 5.063099546567795 13.513768754859726 0 1 -1
894 1 4.198844391228123 6.016812271279556 9.873785807570325 0 0 1
338 1 2.9143612693303345 3.4350915102122066 12.637431876271272 2 1 0
795 1 4.4760663941783445 4.155704398140957 11.337289002228829 1 0 1
1931 1 3.1330490091038907 2.4627758539068534 10.936671610924323 0 0 1
1010 1 17.45726348193757 8.902436031596556 2.1572930318966046 0 0 1
816 1 23.015044002397936 13.850324251102109 4.011906698127554 -1 -1 1
1863 1 6.4097586580961305 5.221994176678743 10.54234367128368 0 0 1
964 1 5.467642292529634 6.225942811945623 12.424482519960172 0 0 1
1997 1 5.20279043575752 3.1593810950045853 9.720354198698008 0 1 1
968 1 7.048408234550431 2.978720860378578 11.492564747074708 1 1 0
1729 1 8.305036302081213 6.394155415974451 12.952980272431834 0 1 1
137 1 5.138668174506727 3.0848219501341108 12.82597254629951 -1 0 0
43 1 20.371710302582184 12.45718717746334 9.56424590071926 -1 -1 0
162 1 16.986518882436297 7.016519637725168 13.217361288803447 -1 0 -1
271 1 7.661497830873817 3.9244786388640027 9.240685705301235 0 0 0
256 1 8.740153998059998 5.155653768646361 11.386379576137237 1 0 1
1459 1 7.337839856844623 4.657960513152217 12.774405811359166 0 1 0
750 1 9.168783732061263 3.179746952112027 10.649759109627897 0 0 1
430 1 9.644139749493492 2.3278498405895602 8.56912370105641 0 0 0
229 1 10.895249781058501 4.773367694683901 11.502316512657892 0 1 0
1925 1 22.05982975623369 12.99259126213302 12.731334154189083 -1 0 0
1543 1 6.63557770205662 11.232140380395343 12.151178181654007 0 0 1
1290 1 8.09426136061774 13.873479020887428 2.715700948734054 0 0 0
695 1 12.632388507621414 5.505398556608919 10.293900517881127 0 0 1
356 1 13.891448496698528 2.8754542500086973 9.600566943283162 -1 1 0
364 1 15.151374839681354 1.648010492222724 12.67646290967676 0 1 0
2005 1 20.77969891746603 11.630808148811024 1.9458188545871373 0 0 1
982 1 11.329658735843973 2.5600728618444806 11.840096993452255 0 1 0
543 1 14.531455350958266 1.3941311624255641 10.442021476146223 0 0 0
1704 1 12.697444160865478 3.7825060313958945 11.49899043126405 -1 1 0
351 1 15.475853995615989 13.657925580500066 3.6826685137362696 1 0 0
1743 1 23.63525183311128 6.014152362719775 13.47106377485749 -1 0 1
1150 1 5.5213658998282815 1.3233415434964908 4.752600990257669 1 1 0
1532 1 16.74158492420484 2.972083851309408 11.015100625706705 0 1 -1
284 1 14.940713446434788 3.8186769804825778 11.762600793276805 0 0 -1
525 1 14.294173389983701 13.998804066865722 10.170797982142211 0 0 0
1776 1 22.192262140922463 2.4793971479179264 12.693491432778034 0 2 1
734 1 18.20577380674739 2.295027835048607 11.785855965967242 0 1 0
1757 1 23.59366735865771 3.132704829967777 11.40772305486634 1 1 0
1259 1 22.475980994429964 7.421340199302853 12.340526294672793 0 1 -1
539 1 22.918347215503875 4.469652763319564 9.577180698157886 0 0 0
1964 1 22.34917169820753 4.98254464973185 11.968943896908524 -1 0 0
1645 1 20.708576159038113 3.6681933558627806 12.93855725599965 -1 1 0
2047 1 12.124464447215523 13.899542008074777 11.066291650316224 2 0 1
1661 1 24.1854980923188 12.412176536158977 13.171796316067962 -1 1 -1
1941 1 4.606167508379704 1.5675511653092935 2.396548858168379 1 1 1
1963 1 26.119144801023864 1.9912097638042696 11.3293232911562 -1 1 1
1853 1 25.75645123732257 5.542269874658459 12.875976266661251 -1 0 0
340 1 14.603510044889923 11.776676803057914 1.1736176985995923 0 0 0
1219 1 24.572967903343855 3.838092574456465 12.890889184179118 -1 1 -1
1811 1 23.361272405450467 1.1777369257668482 11.850609890578069 -1 1 0
1640 1 24.159293235767418 5.924374855427675 11.148561984918397 -1 1 -1
1084 1 5.1562156873699765 10.29523774433297 13.617637849682582 0 1 0
2006 1 2.5194801678585046 6.880529890527148 13.956816569260038 1 1 0
966 1 8.256841892804584 2.093576064938272 12.79550300493328 0 0 1
1066 1 2.980298052313869 5.633514387499187 11.522806513549321 0 0 -1
1482 1 1.2782173216126147 6.83502233355363 12.181760684675895 0 0 -1
333 1 0.9687763378624216 8.730116099861144 11.149182678753595 0 1 0
1040 1 3.113881820718865 7.315298152727065 8.480183575760234 0 1 -2
527 1 2.2461678006217136 4.391317235650016 9.830015683272116 1 -1 0
733 1 6.508565438992057 8.263463188941785 12.56505902573075 0 0 0
749 1 4.30244563059467 8.686630261365998 9.624130171395791 0 0 1
2040 1 5.853102229976471 7.4664851925076405 10.333060663727474 1 1 1
1620 1 3.360231728158113 7.716664074742798 11.204787426702442 0 0 0
1132 1 4.559659600555524 7.818056346741275 13.3051021503445 0 1 0
1787 1 8.043716566413172 6.433646404663838 9.881305160635414 1 1 0
1511 1 4.802667942200045 9.329781766468217 11.479513529882057 0 0 0
506 1 21.55442801388034 13.928345678376674 1.9823837493418928 0 0 1
205 1 16.548626469117025 10.643043860391536 1.1590951247091799 0 0 0
739 1 11.779351027697167 9.294180451809918 11.281640836192382 0 0 1
1329 1 10.965985715806653 6.155536298340733 13.481837742485625 0 1 0
799 1 10.543517116845148 6.840366830360023 10.681796373104454 1 0 0
1594 1 8.690470926834394 7.772387038784925 11.276010716708523 1 1 0
2021 1 9.778108277509647 5.078185753818078 9.654396293376164 -1 0 0
404 1 8.779975386569431 13.530390049392127 8.481380739195863 0 -1 0
548 1 9.99756720313217 8.800325042249858 9.848162481961992 0 0 1
547 1 12.434576026419238 7.848800697578755 9.84972289545884 -2 0 0
551 1 3.1577553969145273 12.372279363046124 1.6964302656394588 0 0 1
901 1 13.641808436697989 5.169903602683329 12.980972961056434 0 0 1
139 1 14.48663235318978 5.611712337444384 11.297536118147722 0 0 0
1059 1 12.769125815499983 7.421550240383689 12.046209476895939 0 0 -1
1123 1 16.727262404295253 9.170621978571132 13.523529187133558 -1 1 -1
1004 1 13.084086134733608 8.97067904953173 13.483699888874607 -1 0 1
1208 1 14.747578977760075 7.846758583278407 13.067790591012631 0 1 0
11 1 18.17782499131705 8.481646946455653 9.96721198248788 -1 0 0
1719 1 19.063350205261063 3.105874649651782 13.555827615555721 0 1 0
1696 1 16.541048327002407 5.1770501419158395 12.08578913867038 0 1 1
1975 1 26.746395950140787 5.5574279034566025 1.6515651725032585 0 1 0
104 1 16.630845334218066 7.191853497921169 11.390161963986694 0 1 -1
1484 1 17.188835528083636 5.58896695882682 10.106932267165197 0 1 1
382 1 3.50600168477328 13.759465250660817 10.762566547247125 0 0 0
622 1 19.77105905255511 6.399529939744827 9.440676302265581 0 0 0
138 1 26.250077602878687 13.508304880852032 6.458176828858802 -1 0 0
1547 1 18.713383305428092 6.800285145351511 11.304383140204616 0 0 0
163 1 8.073239097553037 10.026894299388086 1.0326485430203984 0 -1 0
566 1 20.528385696247096 3.354797701152547 10.941791644891977 0 0 0