LAMMPS (29 Oct 2020)
OMP_NUM_THREADS environment is not set. Defaulting to 1 thread. (src/comm.cpp:94)
  using 1 OpenMP thread(s) per MPI task
package omp 0
using multi-threaded neighbor list subroutines
package omp 2
set 2 OpenMP thread(s) per MPI task
using multi-threaded neighbor list subroutines
units metal  #<----->
dimension 3
boundary p p p

lattice fcc 3.5440
Lattice spacing in x,y,z = 3.5440000 3.5440000 3.5440000
region box block 0 8 0 8 0 8 units lattice
create_box 1 box
Created orthogonal box = (0.0000000 0.0000000 0.0000000) to (28.352000 28.352000 28.352000)
  1 by 2 by 2 MPI processor grid
create_atoms 1 box
Created 2048 atoms
  create_atoms CPU = 0.001 seconds

# read_restart after_heating_press_800000_5000.lmp  #<----->
# read_restart after_cooling_press_800000_2700.lmp

variable P equal 1000000     #<----->
variable dt equal 0.001
variable loopVar loop 6
variable sys_press equal "press/10000"

variable sim string "heating"  #<----->
# variable sim string "cooling"



pair_style eam/alloy
pair_coeff * * Co_Zhou04.eam.alloy Co
Reading eam/alloy potential file Co_Zhou04.eam.alloy with DATE: 2018-03-30




neighbor 2 bin
neigh_modify every 10 check yes

thermo 1000
thermo_style custom step temp vol press ke pe density

timestep $(dt)
timestep 0.0010000000000000000208



velocity all create 4900 123123 #<----->

print """
yo aagadi
"""

yo aagadi

label ensemble

print """
Label pachadi solti, hos garam.
"""

Label pachadi solti, hos garam.

variable T equal 4800+${loopVar}*100  #<----->
variable T equal 4800+1*100  
# variable T equal 2750


reset_timestep 0
fix 1 all npt temp $T $T $(dt*100) iso $P $P $(dt*1000)
fix 1 all npt temp 4900 $T $(dt*100) iso $P $P $(dt*1000)
fix 1 all npt temp 4900 4900 $(dt*100) iso $P $P $(dt*1000)
fix 1 all npt temp 4900 4900 0.10000000000000000555 iso $P $P $(dt*1000)
fix 1 all npt temp 4900 4900 0.10000000000000000555 iso 1000000 $P $(dt*1000)
fix 1 all npt temp 4900 4900 0.10000000000000000555 iso 1000000 1000000 $(dt*1000)
fix 1 all npt temp 4900 4900 0.10000000000000000555 iso 1000000 1000000 1
print """
<--------------------------------------------------------------------->
<------------------ Equilibrating at temperature $T ----------------->
<--------------------------------------------------------------------->
"""

<--------------------------------------------------------------------->
<------------------ Equilibrating at temperature 4900 ----------------->
<--------------------------------------------------------------------->

fix temp all print 1000 "$(step) $(temp) $(press) ${sys_press} $(vol) $(ke) $(pe) $(density)" file temp_${sim}.txt screen no title  "step temp press pressGiga vol ke pe density"
fix temp all print 1000 "$(step) $(temp) $(press) ${sys_press} $(vol) $(ke) $(pe) $(density)" file temp_heating.txt screen no title  "step temp press pressGiga vol ke pe density"
run 250000
Last active /omp style is pair_style eam/alloy/omp
Neighbor list info ...
  update every 10 steps, delay 10 steps, check yes
  max neighbors/atom: 2000, page size: 100000
  master list distance cutoff = 7.6035394
  ghost atom cutoff = 7.6035394
  binsize = 3.8017697, bins = 8 8 8
  1 neighbor lists, perpetual/occasional/extra = 1 0 0
  (1) pair eam/alloy/omp, perpetual
      attributes: half, newton on, omp
      pair build: half/bin/atomonly/newton/omp
      stencil: half/bin/3d/newton
      bin: standard
Per MPI rank memory allocation (min/avg/max) = 4.354 | 4.354 | 4.354 Mbytes
Step Temp Volume Press KinEng PotEng Density 
       0         4900    22790.356    68444.236     1296.518    -9015.757        8.794 
    1000    4723.2895    18376.387    1007988.4    1249.7612    -6901.571      10.9063 
    2000    5001.0498    18453.583    994748.34    1323.2553   -6919.0372    10.860676 
    3000    4892.3952    18444.383    999776.71    1294.5058   -6898.7396    10.866093 
    4000    4943.6213    18427.466    997861.12      1308.06   -6929.0755    10.876069 
    5000    4903.8335     18388.21    1005579.1    1297.5324   -6920.8912    10.899288 
    6000    4947.1119    18431.627    998574.05    1308.9836   -6917.9341    10.873613 
    7000     4887.725    18368.677    1015918.6    1293.2701   -6882.2341    10.910878 
    8000    4906.4547    18469.941    992348.71    1298.2259   -6920.5568    10.851057 
    9000    4922.1216    18417.703    1000489.4    1302.3713   -6918.9525    10.881834 
   10000    4903.2541    18462.301    996142.39    1297.3791   -6908.1104    10.855548 
   11000    4735.8345    18466.562    992812.39    1253.0806   -6903.1428    10.853043 
   12000    5022.5073    18396.403    1015716.5    1328.9329   -6872.3733    10.894433 
   13000    4887.7596    18427.877    998480.51    1293.2793   -6919.0908    10.875826 
   14000    4839.7975    18443.211    993487.33    1280.5887   -6926.7833    10.866784 
   15000    4829.0439     18364.93    1012662.1    1277.7434   -6892.8521    10.913104 
   16000     4962.565     18429.92    998731.67    1313.0724   -6920.6536     10.87462 
   17000    4845.0397    18456.441    999363.65    1281.9758   -6892.6919    10.858994 
   18000    4721.7523    18360.644    1025166.1    1249.3545   -6830.1384    10.915651 
   19000    4757.1835    18508.488    981004.01    1258.7294   -6929.3896    10.828458 
   20000    4835.6713    18325.428    1026291.3    1279.4969   -6867.9603    10.936628 
   21000    5063.5991    18456.572    998017.72    1339.8056   -6910.2133    10.858917 
   22000    4903.9885    18400.485    1002329.5    1297.5734   -6922.4718    10.892017 
   23000    4841.3912    18391.421    1009097.2    1281.0104   -6894.0805    10.897385 
   24000    5074.4209    18467.737      1000173     1342.669   -6888.8573    10.852352 
   25000    4763.0133    18438.088    996433.79     1260.272   -6909.6415    10.869803 
   26000    4955.9864    18374.457    1015427.1    1311.3318   -6886.0439    10.907446 
   27000    5033.0511    18374.169    1013607.2    1331.7228   -6901.9736    10.907616 
   28000    4753.0699    18425.934    997932.87     1257.641   -6916.6139    10.876973 
   29000    5100.8261    18460.304    1007164.2    1349.6557   -6865.2506    10.856722 
   30000    4944.4012    18477.289    986667.51    1308.2664   -6938.7739    10.846742 
   31000    4766.0967    18405.598     999705.1    1261.0878   -6922.8493    10.888991 
   32000    4869.2656    18502.914    987897.45    1288.3859   -6903.9761     10.83172 
   33000    4908.5674      18473.7    982958.17    1298.7849   -6957.6966    10.848849 
   34000    5060.2066    18404.946    1016762.4     1338.908   -6858.2635    10.889376 
   35000    4855.6063    18534.109     978855.8    1284.7717   -6924.6742    10.813489 
   36000     4928.788    18368.636    1006690.3    1304.1352   -6931.3051    10.910902 
   37000    4946.4264    18468.075    994524.43    1308.8023   -6910.4647    10.852154 
   38000    4868.3526    18362.968    1017871.2    1288.1443   -6875.5286     10.91427 
   39000    4713.9661    18426.297    994482.69    1247.2943   -6929.1254    10.876758 
   40000    4938.9162    18334.332    1023569.6    1306.8151   -6878.0789    10.931317 
   41000    4909.2407    18434.178    1000400.1    1298.9631   -6902.5444    10.872109 
   42000    4700.1707    18428.479    995777.68    1243.6441    -6914.577    10.875471 
   43000    5010.1367    18405.846    1010275.1    1325.6597   -6886.1932    10.888844 
   44000    4830.8918    18458.619    987670.78    1278.2323   -6944.1257    10.857713 
   45000    4854.2029    18397.885    1008503.5    1284.4003   -6886.8698    10.893556 
   46000    4940.1102    18446.485    999284.07     1307.131   -6898.7594    10.864855 
   47000     4735.699    18451.433    1001701.3    1253.0447   -6873.4036    10.861942 
   48000    4832.3802    18377.128    1023864.3    1278.6261   -6832.1859     10.90586 
   49000    4907.7329     18526.72    983018.79    1298.5641   -6912.5416    10.817802 
   50000    4902.3399    18504.232    1001069.4    1297.1371   -6843.5591    10.830949 
   51000    4863.9714    18384.882    1015937.7     1286.985   -6866.8861    10.901261 
   52000    4809.7755    18492.309    981410.03     1272.645    -6941.165    10.837932 
   53000    5032.1894    18353.365    1028245.9    1331.4948   -6848.0178    10.919981 
   54000    4895.4693    18525.525    970635.48    1295.3192   -6972.1984      10.8185 
   55000    5028.1969    18432.436    1001374.6    1330.4383    -6911.921    10.873136 
   56000    4866.0299    18445.683    989688.26    1287.5297   -6940.3767    10.865327 
   57000    4958.4409    18434.917    1005063.5    1311.9812   -6886.1345    10.871673 
   58000    4909.5873    18498.702     986763.9    1299.0548   -6921.4587    10.834186 
   59000    4981.1009    18429.767    1006000.1     1317.977   -6883.1369    10.874711 
   60000    4769.4312    18480.689     992920.4    1261.9701   -6887.8933    10.844747 
   61000    5044.7372    18515.952    982265.43    1334.8148   -6936.8741    10.824093 
   62000    4970.2682    18390.347      1002748    1315.1107   -6934.2002    10.898021 
   63000    4878.0309    18470.342     981607.8    1290.7051   -6966.6354    10.850821 
   64000    4886.0578     18430.02    1012674.7     1292.829   -6845.9908    10.874562 
   65000    4801.6341    18431.427       995316    1270.4908   -6922.2083    10.873731 
   66000    4841.3576    18519.496    980832.25    1281.0015   -6925.2276    10.822022 
   67000    4950.2795    18391.238    1018146.4    1309.8218   -6859.6843    10.897493 
   68000    4903.9712    18475.552    994292.19    1297.5688   -6898.8249    10.847762 
   69000    4779.9685    18369.709    1020736.3    1264.7582   -6848.6509    10.910265 
   70000    4886.1377    18458.331    993763.33    1292.8501   -6912.2629    10.857883 
   71000      4861.59    18378.701    1017262.1    1286.3549    -6867.406    10.904927 
   72000    4925.0972    18506.092    977465.02    1303.1587   -6956.5938     10.82986 
   73000    4890.4956    18338.527    1024141.5    1294.0032   -6869.1043    10.928816 
   74000     4938.711    18494.568    988390.45    1306.7608   -6917.5931    10.836608 
   75000    5044.6802    18466.446    995606.21    1334.7998   -6912.9405    10.853111 
   76000    4921.2021     18399.83    1013028.3     1302.128   -6877.7257    10.892404 
   77000    4886.6057    18442.113    989385.15     1292.974   -6946.8011    10.867431 
   78000    4981.4292    18452.829    992874.32    1318.0638   -6929.9542     10.86112 
   79000    4937.4542    18448.502    993108.62    1306.4282   -6932.1488    10.863667 
   80000    4843.4732    18449.191    1001497.8    1281.5613   -6880.1699    10.863262 
   81000    4764.0212    18395.797    1016979.2    1260.5387   -6843.9666    10.894792 
   82000    4886.2999     18513.39    981466.03    1292.8931   -6927.8953    10.825591 
   83000    4873.4912    18439.347    1012789.8    1289.5039    -6837.405    10.869061 
   84000    4908.2606    18455.606    999305.11    1298.7038   -6892.5556    10.859486 
   85000    4893.1129    18564.381    968735.94    1294.6957    -6951.216    10.795856 
   86000    4763.1144    18369.753    1025828.7    1260.2987    -6824.938    10.910239 
   87000    4950.6955    18506.262    984115.64    1309.9318   -6933.0963    10.829761 
   88000    5042.9313    18449.439    1001146.8     1334.337   -6899.5945    10.863115 
   89000     4817.014    18436.049    1005762.5    1274.5603   -6870.3529    10.871006 
   90000    4930.2104    18364.734      1017372    1304.5116   -6881.1882     10.91322 
   91000    4799.2157    18544.911    970793.29     1269.851   -6950.6564    10.807191 
   92000    5017.8702    18392.369    1011164.9     1327.706   -6897.8815    10.896823 
   93000    4683.7073    18400.151    1002451.8     1239.288   -6905.5342    10.892214 
   94000    4892.1529    18460.753    1003474.8    1294.4417   -6864.6562    10.856458 
   95000    5012.4725    18464.598     992252.2    1326.2777   -6932.4871    10.854197 
   96000    4830.3241    18350.442    1012185.8    1278.0821   -6912.1894     10.92172 
   97000      5008.68    18515.749    985019.66    1325.2743    -6922.483    10.824212 
   98000    4944.0168    18527.711    979259.47    1308.1647   -6930.7051    10.817223 
   99000    4963.3475    18417.673    1006342.7    1313.2795   -6894.1178    10.881852 
  100000    4870.5212    18467.613    985751.79    1288.7181   -6946.2034    10.852425 
  101000    4748.1476    18370.983    1019561.7    1256.3386   -6853.4578    10.909508 
  102000    4893.5355    18473.654    990005.37    1294.8075   -6923.7171    10.848876 
  103000    4842.0433    18449.616     993957.4    1281.1829   -6915.6277    10.863011 
  104000    5116.9029    18379.758    1025825.1    1353.9096   -6841.3506    10.904299 
  105000    4880.7238    18501.815    986208.95    1291.4176   -6916.5398    10.832364 
  106000    4761.5304    18398.361    1007913.4    1259.8796   -6887.4271    10.893274 
  107000    4876.9788    18451.959    1004252.2    1290.4267   -6868.9376    10.861632 
  108000    4863.4094    18401.771      1007243    1286.8363   -6891.6581    10.891255 
  109000    4813.7631    18458.388     993206.4    1273.7001   -6909.4861    10.857849 
  110000    4879.5803    18514.309    978865.78    1291.1151   -6945.9489    10.825054 
  111000    4970.9197    18354.907    1030898.1    1315.2831   -6828.6151    10.919063 
  112000    4838.9657    18497.259    982296.76    1280.3686   -6932.8531    10.835032 
  113000    4878.7583    18477.847    986856.63    1290.8976   -6934.0901    10.846415 
  114000    4994.2283    18396.456    1018789.8    1321.4504   -6851.8846    10.894402 
  115000     4819.426    18458.283    981741.47    1275.1985   -6973.2783    10.857911 
  116000    4935.1852    18370.527    1021868.2    1305.8279   -6854.3818    10.909779 
  117000    4815.7408     18438.74    990796.34    1274.2234   -6940.1537    10.869419 
  118000    4905.2937    18470.831    990878.73    1297.9187   -6924.2691    10.850534 
  119000    4814.9146     18376.13    1019890.1    1274.0048   -6850.1732    10.906453 
  120000    4921.4497    18449.647    987170.26    1302.1935   -6959.7419    10.862993 
  121000    4975.5192     18442.06    994091.41    1316.5001   -6936.4134    10.867462 
  122000     4907.621    18433.779    1005991.8    1298.5345   -6877.6567    10.872344 
  123000    4889.3616    18351.303    1018684.7    1293.7032   -6887.0172    10.921207 
  124000    4950.9396    18473.491    989055.36    1309.9964   -6938.5591    10.848972 
  125000    4958.1579    18470.012      1006710    1311.9064   -6848.8358    10.851015 
  126000    4927.5236    18537.563    973032.39    1303.8006   -6955.9116    10.811475 
  127000    4933.4397    18429.386    1006662.7     1305.366   -6883.4106    10.874936 
  128000    4854.6779    18457.631    1003729.1     1284.526   -6865.7247    10.858294 
  129000    4879.7166    18489.052    995636.37    1291.1511   -6878.6465    10.839841 
  130000    4908.5839    18412.305    1011671.2    1298.7893   -6873.6561    10.885024 
  131000    4994.5135    18530.777    988622.69    1321.5259   -6885.9227    10.815433 
  132000    4861.9994    18438.741    1000226.1    1286.4632   -6902.1393    10.869418 
  133000    4927.7614    18414.096    1001818.3    1303.8636   -6919.1473    10.883966 
  134000    4962.0199    18488.533    995913.86    1312.9282    -6882.132    10.840146 
  135000    4938.8976    18480.473    988869.18    1306.8102   -6922.3153    10.844873 
  136000    4996.2181    18315.514    1035542.5    1321.9769   -6836.8492    10.942548 
  137000    4717.0416    18467.551    985828.36    1248.1081   -6932.7809    10.852462 
  138000    4954.0588     18444.99    996868.61    1310.8217   -6917.3856    10.865736 
  139000    4801.1872    18401.055    1006340.4    1270.3726   -6896.5992    10.891679 
  140000    4708.6649    18387.477    1005179.4    1245.8916   -6905.8043    10.899722 
  141000    4919.0742    18430.071    1000156.5     1301.565   -6912.4095    10.874532 
  142000     4985.198    18518.534    982430.76     1319.061   -6929.7186    10.822584 
  143000    4783.8673    18356.552    1022573.8    1265.7898   -6856.9027    10.918085 
  144000    5032.9558    18613.115    964149.81    1331.6975   -6950.2496     10.76759 
  145000    4974.5417    18435.852     992882.5    1316.2414   -6945.9072    10.871121 
  146000     4953.844    18370.355    1023305.4    1310.7649   -6853.2983    10.909881 
  147000    4787.0495    18446.336    987445.22    1266.6318   -6949.4185    10.864943 
  148000     4943.047    18459.012    994874.25    1307.9081   -6919.2451    10.857482 
  149000    4819.6716    18391.553    1005743.6    1275.2635   -6905.2566    10.897307 
  150000     5000.895    18426.713    1000062.4    1323.2144   -6918.2826    10.876513 
  151000    4953.1017    18491.949    989831.84    1310.5685    -6908.558    10.838143 
  152000    4890.5842    18417.653    999090.75    1294.0267   -6926.0111    10.881864 
  153000     4812.242    18438.294    1006728.8    1273.2977   -6860.3806    10.869682 
  154000    4901.0692    18363.925    1004964.1    1296.8009   -6943.7034    10.913701 
  155000    4938.4688    18500.168    980010.65    1306.6967   -6952.0666    10.833328 
  156000    5103.6853    18348.977    1017127.7    1350.4122   -6911.2672    10.922592 
  157000    4966.9918    18440.941    993003.58    1314.2438   -6943.6178    10.868121 
  158000    4908.3687    18423.001    995782.79    1298.7324   -6936.1414    10.878705 
  159000    5042.0758    18405.346    1003671.8    1334.1107   -6920.9881     10.88914 
  160000    4878.4241    18426.653    1004087.2    1290.8091   -6887.2613    10.876549 
  161000    4800.0339    18491.608    979645.94    1270.0675   -6951.5175    10.838343 
  162000    4879.8529    18364.199    1009659.5    1291.1872   -6912.3893    10.913538 
  163000    4919.4585     18414.48    1004874.3    1301.6667   -6904.4236    10.883739 
  164000    4884.6458    18489.474    982649.03    1292.4554   -6946.6427    10.839594 
  165000    5086.4051    18406.185    1008161.9      1345.84   -6907.5953    10.888643 
  166000    4801.5262    18538.127    971205.49    1270.4623   -6958.8609    10.811145 
  167000    4870.7419    18409.925    1015825.6    1288.7765   -6846.4652    10.886431 
  168000    4831.9008    18348.018    1020551.7    1278.4993    -6872.297    10.923163 
  169000    4914.9545    18464.859    992851.32    1300.4749   -6914.1601    10.854044 
  170000    4976.3572    18508.835    981195.24    1316.7218   -6943.9593    10.828255 
  171000    5043.1581    18331.561    1031835.5     1334.397   -6852.4465    10.932969 
  172000    4824.9417      18453.6    990545.69    1276.6579   -6931.2399    10.860666 
  173000    4841.9572    18436.212    1001070.5    1281.1602   -6895.1765    10.870909 
  174000     4850.664    18371.139    1007875.1    1283.4639   -6914.8872    10.909415 
  175000    4981.1672    18529.602    981978.31    1317.9945   -6924.1964    10.816119 
  176000    5101.1467    18345.127    1019699.9    1349.7406   -6900.1481    10.924884 
  177000    4931.7348    18441.498    991106.35    1304.9149    -6949.583    10.867793 
  178000    4987.4539    18450.365    1002275.7    1319.6579   -6891.1247     10.86257 
  179000    4996.6194    18486.849    982988.96    1322.0831   -6953.3961    10.841133 
  180000    4818.4906     18339.54    1014591.2     1274.951   -6908.9971    10.928212 
  181000    4853.6101    18450.075    987257.72    1284.2435   -6955.7575    10.862741 
  182000    4899.8729    18463.299    992847.24    1296.4844   -6918.8123    10.854961 
  183000    4950.6748    18377.252    1012503.7    1309.9264   -6896.7716    10.905786 
  184000    5027.2102    18435.702    989230.05    1330.1773   -6964.7774     10.87121 
  185000    5049.9018    18412.781    1006550.5    1336.1814   -6905.7616    10.884743 
  186000    4757.6766    18462.926    985056.66    1258.8599   -6945.0097     10.85518 
  187000    4954.1547    18320.888    1031898.8    1310.8471   -6854.2469    10.939338 
  188000    5001.9031    18476.446    990439.63    1323.4811    -6929.312    10.847237 
  189000    5006.9459    18466.081    989829.34    1324.8154   -6938.5048    10.853326 
  190000    4920.3482    18410.484    1005966.2    1301.9021   -6898.8763    10.886101 
  191000    4798.1842    18456.741    983693.54     1269.578   -6958.8644    10.858818 
  192000    4896.7641    18449.039    997983.11    1295.6618   -6903.9793    10.863351 
  193000    4823.6961    18459.356    992870.05    1276.3284   -6913.9948     10.85728 
  194000    5025.7517    18479.309    989168.91    1329.7914   -6934.6449    10.845556 
  195000    4848.0704    18371.477      1008565    1282.7777   -6915.6028    10.909215 
  196000    4973.1331    18358.752    1022334.7    1315.8687   -6864.1545    10.916776 
  197000     4762.109    18511.393    972238.22    1260.0327   -6969.2046    10.826759 
  198000    4762.8373    18321.549    1020007.2    1260.2254   -6896.7638    10.938943 
  199000     4872.587    18455.674    991114.46    1289.2647   -6931.4003    10.859445 
  200000    4895.2725    18536.731    977745.24    1295.2672   -6932.5723    10.811959 
  201000    4963.5174     18397.64    1010353.5    1313.3244   -6889.2495    10.893701 
  202000    4702.6158    18407.198    1002559.5     1244.291   -6896.6311    10.888044 
  203000    4912.3172    18373.923    1011950.6    1299.7771   -6901.5845    10.907762 
  204000    4909.1509    18395.123    1013637.8    1298.9393   -6868.2203    10.895191 
  205000    4812.1035    18489.053    992414.75     1273.261   -6892.2536     10.83984 
  206000    4849.7938    18385.985    1009929.7    1283.2337   -6895.8971    10.900606 
  207000    4809.0556    18473.757    998362.45    1272.4545   -6873.5658    10.848816 
  208000    5027.0422    18471.933    996646.79    1330.1328   -6897.2569    10.849887 
  209000    4864.4286    18400.973    1005433.2     1287.106   -6904.4226    10.891728 
  210000    4900.2813    18439.477    1000298.9    1296.5925   -6901.3989    10.868984 
  211000    5038.2702    18367.363    1025523.9    1333.1037   -6849.3134    10.911658 
  212000    4916.1629    18502.164    976488.58    1300.7947   -6967.8236    10.832159 
  213000    5000.6927    18423.912    1004990.5    1323.1609   -6898.4311    10.878167 
  214000    4859.7359     18410.68    1004516.2    1285.8643   -6905.2817    10.885985 
  215000    5072.0094    18511.965    979309.74    1342.0309   -6957.3386    10.826424 
  216000    4786.5319    18379.375    1016804.4    1266.4949   -6863.8593    10.904527 
  217000    5027.8494    18488.039    989890.19    1330.3464   -6922.0473    10.840435 
  218000    4944.7145    18496.473    974518.16    1308.3493   -6987.3373    10.835492 
  219000    4930.0732    18358.325    1017795.8    1304.4753   -6885.2234     10.91703 
  220000    4734.4296    18400.944    1001962.9    1252.7088   -6914.5149    10.891745 
  221000    4868.4668    18424.149      1004612    1288.1745   -6886.4174    10.878027 
  222000    4834.8084    18399.668    1013540.6    1279.2686    -6859.185      10.8925 
  223000    4864.9679    18581.057    964760.47    1287.2487   -6962.8372    10.786167 
  224000     4867.066    18412.352    1010927.1    1287.8038   -6864.6543    10.884996 
  225000    4944.7354    18406.219    1004498.6    1308.3548   -6915.1295    10.888623 
  226000    5028.5565    18385.964    1012028.1    1330.5335   -6898.7307    10.900619 
  227000    4779.2258    18423.105    989919.39    1264.5617   -6958.9985    10.878643 
  228000    5039.5457    18514.249    980403.55    1333.4412   -6945.6967    10.825088 
  229000    4948.4966    18373.471    1023506.2      1309.35   -6842.9271    10.908031 
  230000    4984.1613    18460.352    990735.31    1318.7867   -6935.0911    10.856694 
  231000    4789.6541    18448.073    992271.88     1267.321   -6923.8677     10.86392 
  232000     4940.906    18417.776    1008501.2    1307.3416   -6886.7056    10.881791 
  233000    4916.5416    18414.437    1003265.6    1300.8949   -6905.6382    10.883764 
  234000    4909.8216    18451.751    991904.61    1299.1168   -6932.0966    10.861754 
  235000    4808.1329    18410.692    1004851.5    1272.2104   -6896.7761    10.885978 
  236000    4860.5385    18488.995    979689.65    1286.0767   -6956.3794    10.839874 
  237000     5046.671    18345.754    1039104.1    1335.3265   -6806.2021    10.924511 
  238000    4877.5281    18482.452    988871.03    1290.5721   -6915.8987    10.843712 
  239000    4913.8988     18455.87    1000617.3    1300.1956   -6892.6185     10.85933 
  240000    4798.5618    18367.885      1012779    1269.6779   -6890.1831    10.911348 
  241000    4899.8261    18427.106    992547.97     1296.472   -6950.2165    10.876281 
  242000    4945.0655    18473.408      1005502    1308.4422   -6850.5566    10.849021 
  243000    4941.7955     18477.75    989620.54    1307.5769   -6931.0221    10.846472 
  244000    4934.1648    18393.762    1001980.3    1305.5579   -6936.7561    10.895997 
  245000    5018.8246     18517.44     991986.3    1327.9585   -6881.5083    10.823223 
  246000    4983.4011    18491.694    983298.45    1318.5856   -6949.6987    10.838293 
  247000    5017.4885    18420.704    1000770.5     1327.605   -6924.5602    10.880061 
  248000    4878.1574    18419.603    1004943.8    1290.7386   -6894.7138    10.880712 
  249000     4849.398    18448.587    997345.44     1283.129   -6903.8879    10.863617 
  250000    4978.6612    18438.731    1000587.9    1317.3314   -6904.5862    10.869424 
Loop time of 569.815 on 8 procs for 250000 steps with 2048 atoms

Performance: 37.907 ns/day, 0.633 hours/ns, 438.739 timesteps/s
125.6% CPU use with 4 MPI tasks x 2 OpenMP threads

MPI task timing breakdown:
Section |  min time  |  avg time  |  max time  |%varavg| %total
---------------------------------------------------------------
Pair    | 354.28     | 354.69     | 355.31     |   2.1 | 62.25
Neigh   | 7.5682     | 7.6994     | 7.7577     |   2.8 |  1.35
Comm    | 28.16      | 28.842     | 29.22      |   8.0 |  5.06
Output  | 0.0061232  | 0.011336   | 0.013091   |   2.8 |  0.00
Modify  | 177.5      | 177.52     | 177.53     |   0.1 | 31.15
Other   |            | 1.054      |            |       |  0.19

Nlocal:        512.000 ave         521 max         501 min
Histogram: 1 0 0 0 0 1 1 0 0 1
Nghost:        3107.00 ave        3122 max        3095 min
Histogram: 1 0 1 0 0 1 0 0 0 1
Neighs:        51503.8 ave       52408 max       50022 min
Histogram: 1 0 0 0 0 0 1 0 1 1

Total # of neighbors = 206015
Ave neighs/atom = 100.59326
Neighbor list builds = 6576
Dangerous builds = 0


# fix 132 all momentum 100 linear 1 1 1 angular
fix out_file_1 all print 1000 "$(step) $(temp) $(press) ${sys_press} $(vol) $(ke) $(pe) $(density)" file one_phase_${sim}_press_$P_$T_.txt screen no title  "step temp press pressGiga vol ke pe density"
fix out_file_1 all print 1000 "$(step) $(temp) $(press) ${sys_press} $(vol) $(ke) $(pe) $(density)" file one_phase_heating_press_$P_$T_.txt screen no title  "step temp press pressGiga vol ke pe density"
fix out_file_1 all print 1000 "$(step) $(temp) $(press) ${sys_press} $(vol) $(ke) $(pe) $(density)" file one_phase_heating_press_1000000_$T_.txt screen no title  "step temp press pressGiga vol ke pe density"
fix out_file_1 all print 1000 "$(step) $(temp) $(press) ${sys_press} $(vol) $(ke) $(pe) $(density)" file one_phase_heating_press_1000000_4900_.txt screen no title  "step temp press pressGiga vol ke pe density"

# dump 3 all custom 1000 traj_npt_new.lammpstrj id type x y z
run 50000
Last active /omp style is pair_style eam/alloy/omp
Per MPI rank memory allocation (min/avg/max) = 4.355 | 4.355 | 4.355 Mbytes
Step Temp Volume Press KinEng PotEng Density 
  250000    4978.6612    18438.731    1000587.9    1317.3314   -6904.5862    10.869424 
  251000    4908.6752    18459.864      1010174    1298.8134   -6831.4604    10.856981 
  252000    4888.7642      18493.2    983382.98    1293.5451   -6939.4565     10.83741 
  253000     4929.661    18422.988    1007254.9    1304.3662   -6884.0281    10.878712 
  254000    4963.2574    18510.258    982145.82    1313.2557   -6937.3789    10.827422 
  255000     5104.825    18427.243    1014074.4    1350.7138   -6862.6852      10.8762 
  256000    5123.1121    18427.129     997454.3    1355.5525   -6945.0913    10.876268 
  257000    4757.2014    18477.937    978529.17    1258.7342   -6966.5379    10.846362 
  258000    4836.5696    18369.528    1018128.5    1279.7346   -6867.6778    10.910372 
  259000    4935.4425    18473.694    986648.97     1305.896   -6940.3777    10.848853 
  260000    4830.7847    18355.637    1004928.3     1278.204    -6945.369    10.918629 
  261000    4892.9525    18401.127    1009297.2    1294.6533   -6891.0149    10.891636 
  262000    4790.8947    18479.633    978028.12    1267.6493   -6966.8904    10.845366 
  263000    4944.5524    18382.757    1017776.2    1308.3064    -6869.786    10.902521 
  264000    4767.1461    18382.069    1018712.5    1261.3655   -6853.4586    10.902928 
  265000    4965.3145    18485.066    980131.37       1313.8   -6970.2384    10.842178 
  266000      4861.26    18341.729    1017751.5    1286.2676   -6898.5214    10.926908 
  267000    5007.9191    18405.211    997480.76    1325.0729     -6948.47     10.88922 
  268000    4894.0846    18442.683    995704.55    1294.9528   -6918.2994    10.867095 
  269000    4917.6033    18344.155    1011138.4    1301.1758   -6928.6661    10.925463 
  270000    4947.8215    18497.652    983707.99    1309.1714   -6932.1277    10.834802 
  271000    4944.0909     18499.53    991400.47    1308.1843   -6898.2154    10.833702 
  272000    4935.3752    18416.559    996175.64    1305.8782   -6941.5905     10.88251 
  273000    4991.6194    18450.354    1002264.6    1320.7601   -6888.9457    10.862577 
  274000    4904.7592    18468.257    981856.08    1297.7773   -6970.1343    10.852047 
  275000     4912.071    18402.358    1008632.8     1299.712   -6890.5162    10.890908 
  276000    4817.7914    18422.275    999037.79     1274.766   -6914.2687    10.879133 
  277000    5052.3434    18568.291    964798.21    1336.8274   -6978.0235    10.793583 
  278000    4985.3665    18376.595    1013998.5    1319.1056   -6894.8921    10.906177 
  279000    4844.9904    18398.268    998453.81    1281.9628    -6942.188    10.893329 
  280000    4828.7589    18416.656    1003811.9     1277.668   -6894.7958    10.882453 
  281000    4991.6667    18434.889    1001668.1    1320.7726   -6907.5979     10.87169 
  282000    4800.0107    18380.683    1017445.1    1270.0613   -6860.1812    10.903751 
  283000    4998.6125    18470.616    984576.79    1322.6105   -6957.7381     10.85066 
  284000    4791.2948    18394.735    1006139.1    1267.7551   -6900.8262    10.895421 
  285000    4984.5003    18390.935    1014268.6    1318.8764   -6877.3886    10.897672 
  286000    4927.1091    18388.192    999928.13     1303.691   -6953.0018    10.899298 
  287000    4985.1287    18476.502    983841.26    1319.0427   -6959.3996    10.847204 
  288000    5094.8627    18408.954    1015428.5    1348.0778   -6870.0936    10.887006 
  289000    4990.6778    18480.656     974593.1     1320.511   -7000.6319    10.844766 
  290000    4930.0299    18390.843      1010590    1304.4638   -6893.9847    10.897727 
  291000    4793.1969    18356.099      1012683    1268.2584   -6903.9081    10.918354 
  292000    4849.6765    18498.865    984489.02    1283.2027   -6927.2881    10.834091 
  293000    4944.9051    18383.642    1014691.1    1308.3997   -6881.0204    10.901996 
  294000    4697.0581    18414.806    1003683.8    1242.8205   -6890.1039    10.883546 
  295000    4930.3578    18460.671      1005898    1304.5506   -6862.0836    10.856506 
  296000    5025.7239    18311.908    1027259.8     1329.784   -6886.2428    10.944702 
  297000     4801.391    18501.841    979326.24    1270.4265   -6945.7464    10.832348 
  298000    5095.8884    18451.533    996174.35    1348.3492   -6925.5055    10.861883 
  299000    5150.1135    18443.653    1004643.7    1362.6969   -6897.5169    10.866523 
  300000    4772.3787    18566.696    972358.61      1262.75   -6921.2139     10.79451 
Loop time of 117.629 on 8 procs for 50000 steps with 2048 atoms

Performance: 36.726 ns/day, 0.653 hours/ns, 425.065 timesteps/s
126.0% CPU use with 4 MPI tasks x 2 OpenMP threads

MPI task timing breakdown:
Section |  min time  |  avg time  |  max time  |%varavg| %total
---------------------------------------------------------------
Pair    | 73.225     | 73.35      | 73.429     |   0.9 | 62.36
Neigh   | 1.5638     | 1.5858     | 1.5958     |   1.0 |  1.35
Comm    | 5.81       | 5.8781     | 5.971      |   2.4 |  5.00
Output  | 0.0012383  | 0.0019217  | 0.0021559  |   0.9 |  0.00
Modify  | 36.579     | 36.595     | 36.616     |   0.2 | 31.11
Other   |            | 0.2175     |            |       |  0.18

Nlocal:        512.000 ave         521 max         504 min
Histogram: 2 0 0 0 0 0 0 0 1 1
Nghost:        3110.50 ave        3120 max        3098 min
Histogram: 1 0 0 0 0 1 0 1 0 1
Neighs:        51212.5 ave       52428 max       50050 min
Histogram: 1 1 0 0 0 0 0 1 0 1

Total # of neighbors = 204850
Ave neighs/atom = 100.02441
Neighbor list builds = 1320
Dangerous builds = 0

unfix temp
unfix out_file_1


write_data after_${sim}_press_$P_$T.in
write_data after_heating_press_$P_$T.in
write_data after_heating_press_1000000_$T.in
write_data after_heating_press_1000000_4900.in
System init for write_data ...
Last active /omp style is pair_style eam/alloy/omp
write_restart after_${sim}_press_$P_$T.lmp
write_restart after_heating_press_$P_$T.lmp
write_restart after_heating_press_1000000_$T.lmp
write_restart after_heating_press_1000000_4900.lmp
System init for write_restart ...
Last active /omp style is pair_style eam/alloy/omp

next loopVar  #<----->
jump in.lmp ensemble

print """
Label pachadi solti, hos garam.
"""

Label pachadi solti, hos garam.

variable T equal 4800+${loopVar}*100  #<----->
variable T equal 4800+2*100  
# variable T equal 2750


reset_timestep 0
fix 1 all npt temp $T $T $(dt*100) iso $P $P $(dt*1000)
fix 1 all npt temp 5000 $T $(dt*100) iso $P $P $(dt*1000)
fix 1 all npt temp 5000 5000 $(dt*100) iso $P $P $(dt*1000)
fix 1 all npt temp 5000 5000 0.10000000000000000555 iso $P $P $(dt*1000)
fix 1 all npt temp 5000 5000 0.10000000000000000555 iso 1000000 $P $(dt*1000)
fix 1 all npt temp 5000 5000 0.10000000000000000555 iso 1000000 1000000 $(dt*1000)
fix 1 all npt temp 5000 5000 0.10000000000000000555 iso 1000000 1000000 1
print """
<--------------------------------------------------------------------->
<------------------ Equilibrating at temperature $T ----------------->
<--------------------------------------------------------------------->
"""

<--------------------------------------------------------------------->
<------------------ Equilibrating at temperature 5000 ----------------->
<--------------------------------------------------------------------->

fix temp all print 1000 "$(step) $(temp) $(press) ${sys_press} $(vol) $(ke) $(pe) $(density)" file temp_${sim}.txt screen no title  "step temp press pressGiga vol ke pe density"
fix temp all print 1000 "$(step) $(temp) $(press) ${sys_press} $(vol) $(ke) $(pe) $(density)" file temp_heating.txt screen no title  "step temp press pressGiga vol ke pe density"
run 250000
Last active /omp style is pair_style eam/alloy/omp
Per MPI rank memory allocation (min/avg/max) = 4.355 | 4.355 | 4.355 Mbytes
Step Temp Volume Press KinEng PotEng Density 
       0    4772.3787    18566.696    972358.61      1262.75   -6921.2139     10.79451 
    1000    5061.4809    18401.831    1017359.4    1339.2451    -6855.257     10.89122 
    2000    4794.9168    18471.272    1010408.4    1268.7135   -6817.4739    10.850275 
    3000     4918.105    18488.169    992363.87    1301.3085    -6900.896    10.840359 
    4000    4997.6976    18478.589    1006736.9    1322.3684   -6839.6777    10.845979 
    5000    4940.2518     18528.64    989541.64    1307.1685    -6883.965    10.816681 
    6000     4807.046    18506.332    1013376.1    1271.9228   -6770.5666     10.82972 
    7000    5011.1752    18558.846    995475.65    1325.9345   -6825.6107    10.799076 
    8000    5027.0711    18558.321    984710.49    1330.1405   -6887.4084    10.799381 
    9000    5123.0518    18445.623    1019610.3    1355.5365   -6818.2122    10.865363 
   10000    4983.5252    18518.434    988349.74    1318.6184   -6901.5901    10.822642 
   11000    5053.4675    18532.029    993056.15    1337.1248   -6872.2614    10.814703 
   12000    4935.4037    18452.442    1009403.6    1305.8857   -6848.5682    10.861347 
   13000    4859.2583    18562.637    991686.85     1285.738   -6835.4759     10.79687 
   14000    5067.9229    18510.968    991940.43    1340.9497   -6898.5755    10.827007 
   15000    5050.6116    18413.818    1016317.3    1336.3692   -6853.7506     10.88413 
   16000    4983.8667    18521.871    980041.04    1318.7088   -6943.8325    10.820634 
   17000    4980.8655    18485.142    1011721.5    1317.9147   -6809.0192    10.842134 
   18000    4975.7221    18463.343    1001861.8    1316.5538   -6882.1919    10.854935 
   19000    5137.6752    18595.682    987903.64    1359.4058   -6847.5219    10.777684 
   20000    4856.1548    18427.848    1013874.7    1284.9168   -6839.9095    10.875843 
   21000    4927.4263    18512.751    998619.76    1303.7749   -6847.6058    10.825964 
   22000    5069.8305    18507.353    999254.35    1341.4544   -6858.3946    10.829122 
   23000     5168.064    18527.512    986703.92    1367.4466   -6909.5877     10.81734 
   24000    5053.9685    18524.592    986061.64    1337.2574   -6908.1516    10.819045 
   25000    5163.0561    18576.897    994941.21    1366.1215   -6827.2407    10.788583 
   26000    5092.5961    18473.723    1020155.1    1347.4781   -6790.0127    10.848836 
   27000    5087.7422    18444.803    1014422.5    1346.1938   -6838.1867    10.865846 
   28000    4859.3605    18516.658    984867.07     1285.765   -6907.5857     10.82368 
   29000    4989.8057    18524.697     998653.2    1320.2802   -6841.1444    10.818983 
   30000    4983.5411    18433.772    1007284.4    1318.6226   -6875.9636    10.872348 
   31000    4903.8463    18509.414    985647.82    1297.5358   -6917.3421    10.827916 
   32000      5077.99    18470.836      1004625    1343.6134   -6862.2345    10.850531 
   33000    5138.8031    18434.798    1002999.5    1359.7043   -6906.5127    10.871743 
   34000    4970.3818    18503.173    987366.22    1315.1407   -6910.4573    10.831569 
   35000    5143.9775    18474.416    1013179.1    1361.0734   -6823.9181    10.848429 
   36000    5101.4405     18460.54    1004781.1    1349.8183   -6875.0112    10.856583 
   37000    5062.2894    18494.432    992093.03    1339.4591   -6909.5468    10.836688 
   38000    4944.1329    18452.164    1005210.4    1308.1954   -6870.3388    10.861511 
   39000    5046.4424    18497.294    992178.46     1335.266    -6902.639    10.835011 
   40000    4920.3858    18403.356    1009243.2     1301.912   -6895.5267    10.890318 
   41000    5039.9001     18499.09    993691.56     1333.535   -6898.1721    10.833959 
   42000    4827.1102    18457.713    1005980.3    1277.2317   -6850.6816    10.858246 
   43000    5021.7391    18471.922    990680.93    1328.7297   -6926.6151    10.849893 
   44000    4906.9712     18499.75    994525.08    1298.3626   -6875.4359    10.833573 
   45000    5176.5235    18443.991    1019166.2    1369.6849    -6822.638    10.866324 
   46000    4943.2258    18501.265    993701.72    1307.9554   -6887.9827    10.832686 
   47000    5143.6221    18533.291    983655.12    1360.9794   -6917.7344    10.813966 
   48000    4954.6909    18432.025    1004295.5     1310.989   -6888.5412    10.873379 
   49000    4806.9744    18392.402    1016051.5    1271.9039   -6859.0841    10.896803 
   50000    5010.2801    18571.168    967812.03    1325.6977   -6959.0518     10.79191 
   51000    5062.5671    18455.519    1020302.9    1339.5326   -6799.7937    10.859536 
   52000    5102.1238    18463.793     996042.2    1349.9991   -6920.3908     10.85467 
   53000    5012.5177    18528.834    993990.19    1326.2897   -6863.0551    10.816568 
   54000    5063.0453    18434.967    1005973.7    1339.6591   -6887.5908    10.871643 
   55000    4901.0656    18406.741    1010316.2       1296.8    -6880.372    10.888314 
   56000    4948.7711    18538.312     991805.3    1309.4227    -6864.262    10.811037 
   57000     5151.593    18546.814    990397.51    1363.0884   -6878.3542    10.806082 
   58000    5009.8945    18461.781    1007249.1    1325.5956   -6855.9346    10.855853 
   59000    4984.1317    18593.555    983876.75    1318.7789   -6864.4104    10.778917 
   60000    5030.6385    18526.147    1011899.2    1331.0844    -6774.954    10.818137 
   61000    4940.9599     18567.35    985312.85    1307.3558   -6872.1705     10.79413 
   62000    4843.0819    18469.638    1002279.2    1281.4578   -6861.3466    10.851235 
   63000     4922.232     18448.35    1024479.4    1302.4005   -6773.2981    10.863757 
   64000    4968.4074    18547.411    977346.11    1314.6183   -6931.6594    10.805734 
   65000    5074.9534    18473.689    1004467.9    1342.8099   -6863.1406    10.848856 
   66000    4965.5529     18471.41    1007109.3     1313.863   -6851.3411    10.850194 
   67000    4919.0181    18442.343    1004097.4    1301.5501   -6871.2444    10.867295 
   68000    5023.2953      18480.9    999320.17    1329.1414   -6880.3598    10.844623 
   69000    5113.9973    18459.933      1009595    1353.1407   -6849.7406     10.85694 
   70000    5013.6615    18547.756    985266.51    1326.5924   -6891.5225    10.805533 
   71000    4994.3015    18442.813    1009231.5    1321.4698   -6855.8618    10.867018 
   72000    5052.7475    18483.334    1007954.9    1336.9343   -6835.6029    10.843195 
   73000    5016.6143    18547.617    984341.85    1327.3736    -6896.651    10.805614 
   74000    5070.1052    18484.047     995775.5    1341.5271   -6896.5989    10.842776 
   75000     5035.561    18477.506    1003389.5    1332.3869   -6869.7765    10.846615 
   76000    4942.1087    18546.695     980807.7    1307.6598   -6912.2156    10.806151 
   77000    4920.8934    18467.731    1008892.5    1302.0463   -6838.3379    10.852356 
   78000    5006.2392    18372.761    1019020.8    1324.6284   -6873.9609    10.908452 
   79000    5054.8315    18504.674    990362.99    1337.4857   -6905.9971     10.83069 
   80000    5033.3303    18492.685    1006735.3    1331.7966   -6836.0777    10.837712 
   81000    4881.8814    18481.972    988598.46    1291.7239   -6917.7026    10.843994 
   82000     5051.444    18530.661    988811.55    1336.5894   -6890.6094    10.815501 
   83000    5002.5156    18392.408    1021728.8    1323.6432   -6841.3508      10.8968 
   84000    5017.5083    18545.569    993946.19    1327.6102   -6851.4428    10.806807 
   85000    5044.0058    18421.366    1014650.3    1334.6213   -6856.4544     10.87967 
   86000    4981.4536    18505.627    999032.63    1318.0703   -6857.7883    10.830132 
   87000    5061.7575    18616.574    978175.86    1339.3183   -6875.8348    10.765589 
   88000    5083.1385     18434.17    1019170.3    1344.9757   -6820.0681    10.872114 
   89000    4937.5744    18521.354    980803.31    1306.4601   -6927.2434    10.820936 
   90000    5000.8742    18454.952    1008274.2    1323.2089   -6853.2086     10.85987 
   91000    4877.0852    18452.397    998651.94    1290.4549   -6900.5198    10.861374 
   92000    4984.4157    18487.346    989735.61     1318.854    -6918.736    10.840841 
   93000    5240.6178    18502.335    998138.37     1386.644   -6882.9989    10.832059 
   94000    4952.6647    18518.157    991804.72    1310.4529   -6881.8406    10.822804 
   95000    5107.9562    18468.115    1011334.3    1351.5423   -6839.2515     10.85213 
   96000    5083.7184    18421.436    1007939.2    1345.1291   -6886.3639    10.879629 
   97000    4766.4261    18508.922    977953.07     1261.175   -6947.1653    10.828204 
   98000    4895.0815     18407.19    1024431.4    1295.2166   -6811.0727    10.888049 
   99000    4917.9893    18381.361    1009772.4    1301.2779   -6905.5403    10.903349 
  100000    4932.5895    18567.876    983224.19    1305.1411   -6874.9507    10.793824 
  101000    4867.1683    18470.601     999439.7    1287.8309   -6872.7315    10.850669 
  102000    5094.6483    18489.583    1001742.1    1348.0211   -6865.3682     10.83953 
  103000    5025.8521    18373.612    1035816.9    1329.8179   -6786.9104    10.907947 
  104000    4926.0682     18572.48    970612.58    1303.4155   -6939.0282    10.791148 
  105000    5225.0333    18508.706    1001483.9    1382.5204   -6859.0339    10.828331 
  106000    5085.7511    18419.562    1014374.5    1345.6669   -6861.7102    10.880736 
  107000    5086.7154    18528.779       983782    1345.9221   -6918.1188      10.8166 
  108000    5003.1844    18450.574    1005764.2    1323.8202   -6866.8087    10.862447 
  109000    5058.1995    18511.894       998097    1338.3769   -6867.5313    10.826466 
  110000    4794.1767    18440.088    1011157.6    1268.5177   -6842.2367    10.868624 
  111000    5035.1671    18444.072    1012205.2    1332.2826   -6847.2032    10.866277 
  112000    4973.5584    18533.032    992883.98    1315.9813   -6862.2432    10.814118 
  113000    5111.4117     18456.23    1014489.1    1352.4566   -6833.7871    10.859118 
  114000    4906.5234    18443.318    1015392.2    1298.2441   -6825.1553     10.86672 
  115000    4985.0497    18632.509     967153.9    1319.0218   -6910.7188    10.756382 
  116000    4994.4729    18442.095      1004572    1321.5151   -6888.1249    10.867441 
  117000    4962.6251     18454.62    1012503.1    1313.0884   -6835.7749    10.860066 
  118000    4968.3284    18527.039    990681.78    1314.5974   -6876.7183    10.817616 
  119000    4990.2239     18500.16    997774.66    1320.3909   -6871.0639    10.833333 
  120000    5103.8054    18509.308    990223.07     1350.444   -6907.2508    10.827978 
  121000    4955.2574    18419.124    1009996.6    1311.1389   -6871.8583    10.880994 
  122000    4786.0361    18537.947    987053.56    1266.3637   -6870.4113    10.811251 
  123000    5021.5475    18474.292    1005556.1     1328.679   -6854.6848    10.848502 
  124000    4985.7187     18455.88    1008701.4    1319.1988   -6852.0478    10.859324 
  125000    4973.2783     18479.73    991572.74    1315.9071   -6918.4876    10.845309 
  126000    5066.9805     18438.17      1005865    1340.7003   -6886.7437    10.869754 
  127000    5118.8792    18352.477    1031458.4    1354.4325   -6840.7903    10.920509 
  128000    4839.3273    18514.449    982247.47    1280.4643   -6919.3849    10.824972 
  129000    5079.7723    18507.718    997272.73     1344.085   -6872.3015    10.828908 
  130000    4904.6196    18510.521    990335.43    1297.7404   -6892.4725    10.827269 
  131000    4907.6134    18465.193    1016807.1    1298.5325   -6798.0486    10.853848 
  132000    4941.1765    18561.645    984981.77    1307.4131   -6879.0665    10.797448 
  133000    5077.6125     18564.88    989126.52    1343.5135   -6860.4472    10.795566 
  134000    4961.0173    18348.772    1039922.5    1312.6629   -6783.8757    10.922714 
  135000    4928.7399    18598.737    982296.22    1304.1225    -6864.959    10.775914 
  136000    4904.1424    18486.933    1002332.8    1297.6141   -6855.6391    10.841083 
  137000     5060.817    18533.563    1010467.8    1339.0695   -6782.1665    10.813808 
  138000    4887.1467     18470.12    1005297.7    1293.1171    -6845.747    10.850952 
  139000    5055.8016    18513.431    1000134.7    1337.7424   -6845.8311    10.825567 
  140000    5107.5804    18480.258    1005900.3    1351.4429   -6855.6823    10.844999 
  141000    4990.6866    18442.733    1012336.6    1320.5133    -6848.002    10.867066 
  142000    4976.3435    18556.037    974768.21    1316.7182   -6934.2377    10.800711 
  143000     5096.184    18417.311    1022282.6    1348.4274    -6826.055    10.882066 
  144000    4961.5955    18485.485    1000458.1    1312.8159   -6868.6432    10.841933 
  145000    5018.1092    18559.809    983145.77    1327.7692   -6891.2471    10.798516 
  146000    4959.5306    18378.629    1029344.5    1312.2696   -6813.1913    10.904969 
  147000     5011.266    18523.602    989188.82    1325.9585   -6892.8725    10.819623 
  148000    5043.0132     18491.37    1003887.1    1334.3587   -6849.3019    10.838482 
  149000     4933.294    18477.935    1004292.7    1305.3275   -6852.0587    10.846363 
  150000    4874.0044    18478.142    990806.09    1289.6397   -6910.6651    10.846241 
  151000    5036.3493    18460.784    1022333.4    1332.5955    -6787.442     10.85644 
  152000     4915.389     18404.19    1014936.8    1300.5899   -6862.9628    10.889824 
  153000    5138.4862    18578.474    979896.76    1359.6204   -6900.9571    10.787667 
  154000    4936.0758    18404.859    1013042.1    1306.0635   -6869.2166    10.889428 
  155000    5012.3642    18448.498    996271.66    1326.2491   -6918.1166     10.86367 
  156000    4965.7461    18492.277    999629.59    1313.9141   -6863.3271     10.83795 
  157000    5193.7868    18562.341    987563.41    1374.2527   -6889.7514    10.797042 
  158000    4984.7096    18498.815    1002724.4    1318.9318   -6845.5569     10.83412 
  159000     5090.311    18434.541      1013438    1346.8735   -6858.6838    10.871894 
  160000    5040.8453    18557.064    978403.52    1333.7851   -6920.9524    10.800113 
  161000    4975.2034    18377.962    1027321.1    1316.4165     -6825.46    10.905365 
  162000    5020.1602    18457.648    1008785.3    1328.3119   -6851.0889    10.858284 
  163000    4980.0638    18539.932    995857.95    1317.7026   -6843.5505    10.810093 
  164000    5013.6196    18524.201    1001504.8    1326.5813   -6830.6122    10.819273 
  165000    4931.9789    18515.662    995027.72    1304.9795   -6860.4933    10.824262 
  166000    5019.0001     18491.97    1002457.6    1328.0049    -6860.369    10.838131 
  167000    5061.2092    18707.966     981144.3    1339.1733   -6782.2502    10.712997 
  168000    4942.3085     18728.38      1016148    1307.7127   -6579.3052     10.70132 
  169000    5038.7425    18901.405    990445.76    1333.2287   -6569.0558    10.603359 
  170000    5061.4491    18909.253    986424.36    1339.2367   -6582.5795    10.598959 
  171000    5132.0059    18771.991    1033368.3    1357.9057   -6462.8953    10.676459 
  172000    4882.7042    18953.679    981520.52    1291.9416   -6561.5816    10.574115 
  173000    4948.9126    18863.852    1007804.3    1309.4601   -6514.0689    10.624468 
  174000    5097.9381     18795.06    1016054.9    1348.8916   -6535.0216    10.663355 
  175000    4976.5883     18935.19    982050.12    1316.7829   -6579.3454     10.58444 
  176000    5055.5803    18900.696    993411.29    1337.6839   -6558.2582    10.603757 
  177000    5089.6005    18827.067      1006507    1346.6855   -6562.4766    10.645226 
  178000    5113.7525    18869.338    998952.32     1353.076   -6554.1427    10.621379 
  179000    4823.1725    18905.739    989845.33    1276.1898   -6551.1534    10.600929 
  180000     4953.776    18811.248    1020069.2    1310.7469   -6488.6971    10.654178 
  181000    4893.1227    18851.697    992085.65    1294.6983   -6595.2041    10.631318 
  182000    4900.7919    18914.574    990410.81    1296.7276   -6553.7143    10.595977 
  183000    5076.2619    18840.247    1001935.7    1343.1561   -6556.3332    10.637779 
  184000    5079.6397    18838.785    1003705.4    1344.0499   -6560.9108    10.638605 
  185000    5064.0185    18893.844    990654.29    1339.9166   -6582.5248    10.607602 
  186000    5017.2171    18770.601    1029214.2    1327.5331   -6482.8555    10.677249 
  187000    5131.6031    18959.565    980257.95    1357.7992   -6585.3336    10.570833 
  188000    4975.2632    18864.924    995826.34    1316.4323   -6572.2589    10.623864 
  189000    5124.7429    18863.673    1003678.1     1355.984   -6537.9454    10.624568 
  190000    4937.3287     18834.08    1003396.5     1306.395    -6550.881    10.641262 
  191000    4942.3411    18861.894    1001703.9    1307.7213   -6541.7535    10.625571 
  192000    5059.5711    18931.842    998964.47    1338.7398   -6512.2064    10.586312 
  193000    4994.8982    18769.072    1028918.8    1321.6277   -6475.8435    10.678119 
  194000    5152.3546    18919.497    978658.48    1363.2899    -6620.622     10.59322 
  195000    4975.8006    18855.436    1005934.3    1316.5745   -6522.5266     10.62921 
  196000    5000.3682    18826.546    1009968.8     1323.075    -6525.313    10.645521 
  197000    5002.3187    18900.228    990876.96    1323.5911    -6571.994     10.60402 
  198000    4927.8598    18902.193       996161    1303.8896   -6532.6131    10.602917 
  199000    5196.6388    18830.671    1016447.8    1375.0073   -6509.4456    10.643189 
  200000    4947.4396    18939.158    974662.15    1309.0703   -6618.5288    10.582223 
  201000      5052.07    18858.856    1005277.3    1336.7551   -6533.0085    10.627282 
  202000    4996.6687    18825.472    1007873.5    1322.0961    -6534.166    10.646128 
  203000    4962.7108    18828.782      1006754     1313.111   -6538.6246    10.644256 
  204000    4935.1402    18886.824     997832.3     1305.816   -6539.6743    10.611545 
  205000    4884.4245    18869.066    998005.76    1292.3968    -6551.965    10.621532 
  206000    5104.3753    18844.933    1007717.3    1350.5948   -6533.0178    10.635134 
  207000     4884.958    18939.138    982710.91     1292.538   -6569.1419    10.582234 
  208000    4984.6839    18873.797    998443.87     1318.925   -6549.5471     10.61887 
  209000    5140.3304    18854.817    1005115.6    1360.1084   -6535.6217    10.629559 
  210000    4984.3571    18922.031    985935.47    1318.8386   -6572.3569    10.591801 
  211000    5062.2184    18846.129      1012038    1339.4403   -6505.5215    10.634459 
  212000    4977.8461    18949.559    976420.49    1317.1158    -6592.682    10.576414 
  213000    5142.9819    18894.071    991198.33      1360.81   -6584.6516    10.607475 
  214000    5224.8497    18854.873      1009234    1382.4718   -6530.3064    10.629527 
  215000    5114.2829    18927.054    976680.67    1353.2163   -6624.2066     10.58899 
  216000    4763.9488    18802.354    1017832.6    1260.5195   -6482.8996    10.659218 
  217000    4980.2905    18851.748    1010575.5    1317.7625   -6504.9242    10.631289 
  218000    5099.5797    18924.815     983490.1    1349.3259   -6592.5795    10.590243 
  219000    5173.5495    18936.903    980988.66     1368.898   -6599.1893    10.583483 
  220000    5014.4743    18838.764    1007514.8    1326.8074   -6531.5913    10.638616 
  221000    4868.2053    18931.611    988703.84    1288.1053   -6541.9694    10.586441 
  222000    4997.4154    18872.647    1012601.8    1322.2937    -6480.331    10.619516 
  223000      5013.71    18921.023    989089.58    1326.6052   -6567.0526    10.592365 
  224000    5032.6677    18926.434    979686.63    1331.6213   -6603.6056    10.589337 
  225000    5094.0802    18844.707    1021446.2    1347.8708   -6465.2776    10.635261 
  226000    4993.2286    18932.987    987402.57    1321.1859    -6563.209    10.585672 
  227000    4893.9846    18859.953    998119.19    1294.9264   -6556.6605    10.626664 
  228000    5005.0742    18853.022    1011012.9    1324.3202   -6503.5177    10.630571 
  229000    4895.5618    18856.932    997825.69    1295.3437   -6552.3443    10.628366 
  230000    5029.6154     18979.28    975534.13    1330.8137   -6581.9565    10.559852 
  231000     4908.845    18849.869    1010941.6    1298.8584   -6500.5506    10.632349 
  232000    5073.1006    18827.197    1015691.4    1342.3197   -6502.4621    10.645153 
  233000    4893.1952    18878.433    987636.45    1294.7175   -6596.8429    10.616262 
  234000    4902.4597    18798.201    1016498.6    1297.1688   -6514.3681    10.661573 
  235000    5041.1359    18893.932    997375.23     1333.862   -6542.9089    10.607553 
  236000    5000.8542    18858.523     991446.3    1323.2036   -6594.4249     10.62747 
  237000    5159.4265      18851.3      1010367    1365.1611   -6512.3777    10.631542 
  238000    5097.0854    18921.884     984872.7    1348.6659   -6589.1525    10.591883 
  239000    4922.4222    18868.198    999452.85    1302.4509   -6535.9207     10.62202 
  240000     5219.142     18869.88    1000413.3    1380.9616    -6566.731    10.621074 
  241000    4930.7091    18946.551    979499.53    1304.6435   -6588.9863    10.578094 
  242000    5033.6978    18799.389    1013835.7    1331.8939   -6537.7833    10.660899 
  243000    5136.4463    18813.089    1020040.3    1359.0807   -6499.5607    10.653136 
  244000    4940.5173    18933.075    980050.08    1307.2387   -6589.2024    10.585623 
  245000    5089.2022    18816.842    1016359.2    1346.5801   -6516.2154    10.651011 
  246000    5169.6624    18873.737    996944.12    1367.8695   -6568.7868    10.618903 
  247000    4994.8547    18837.987    994693.77    1321.6162   -6598.4962    10.639055 
  248000    5105.0791    18816.959    1009713.2     1350.781   -6551.8098    10.650944 
  249000    5014.0652    18907.239    994750.24    1326.6992   -6547.9426    10.600087 
  250000    4978.8982    18926.981    979549.54    1317.3941   -6602.8548    10.589031 
Loop time of 634.031 on 8 procs for 250000 steps with 2048 atoms

Performance: 34.068 ns/day, 0.704 hours/ns, 394.302 timesteps/s
122.7% CPU use with 4 MPI tasks x 2 OpenMP threads

MPI task timing breakdown:
Section |  min time  |  avg time  |  max time  |%varavg| %total
---------------------------------------------------------------
Pair    | 395.38     | 396.61     | 397.72     |   4.8 | 62.55
Neigh   | 8.1859     | 8.3244     | 8.4051     |   2.9 |  1.31
Comm    | 40.729     | 41.821     | 43.033     |  15.6 |  6.60
Output  | 0.0066379  | 0.011846   | 0.013606   |   2.8 |  0.00
Modify  | 186.03     | 186.08     | 186.15     |   0.3 | 29.35
Other   |            | 1.185      |            |       |  0.19

Nlocal:        512.000 ave         516 max         509 min
Histogram: 1 0 1 0 1 0 0 0 0 1
Nghost:        3171.75 ave        3173 max        3168 min
Histogram: 1 0 0 0 0 0 0 0 0 3
Neighs:        50375.0 ave       51751 max       48802 min
Histogram: 1 0 0 1 0 0 0 1 0 1

Total # of neighbors = 201500
Ave neighs/atom = 98.388672
Neighbor list builds = 6646
Dangerous builds = 0


# fix 132 all momentum 100 linear 1 1 1 angular
fix out_file_1 all print 1000 "$(step) $(temp) $(press) ${sys_press} $(vol) $(ke) $(pe) $(density)" file one_phase_${sim}_press_$P_$T_.txt screen no title  "step temp press pressGiga vol ke pe density"
fix out_file_1 all print 1000 "$(step) $(temp) $(press) ${sys_press} $(vol) $(ke) $(pe) $(density)" file one_phase_heating_press_$P_$T_.txt screen no title  "step temp press pressGiga vol ke pe density"
fix out_file_1 all print 1000 "$(step) $(temp) $(press) ${sys_press} $(vol) $(ke) $(pe) $(density)" file one_phase_heating_press_1000000_$T_.txt screen no title  "step temp press pressGiga vol ke pe density"
fix out_file_1 all print 1000 "$(step) $(temp) $(press) ${sys_press} $(vol) $(ke) $(pe) $(density)" file one_phase_heating_press_1000000_5000_.txt screen no title  "step temp press pressGiga vol ke pe density"

# dump 3 all custom 1000 traj_npt_new.lammpstrj id type x y z
run 50000
Last active /omp style is pair_style eam/alloy/omp
Per MPI rank memory allocation (min/avg/max) = 4.357 | 4.358 | 4.359 Mbytes
Step Temp Volume Press KinEng PotEng Density 
  250000    4978.8982    18926.981    979549.54    1317.3941   -6602.8548    10.589031 
  251000    5076.4208    18795.498      1021335    1343.1982   -6501.5875    10.663106 
  252000    4979.7013    18831.561    1006707.8    1317.6066   -6537.0497    10.642686 
  253000    5070.7795     18915.35    997186.21    1341.7055   -6524.6611    10.595542 
  254000    4984.3347    18845.981    1007920.2    1318.8326   -6531.2079    10.634543 
  255000    4851.7205    18856.766     996954.6    1283.7435   -6566.2379     10.62846 
  256000     5043.501    18845.635    1008493.3    1334.4878   -6526.7561    10.634738 
  257000    5000.0155    18899.381    994023.03    1322.9817   -6552.0238    10.604495 
  258000    5135.8023    18830.822    1012873.1    1358.9103   -6528.9558    10.643104 
  259000     4991.847    18888.752    993594.07    1320.8203   -6561.7585    10.610462 
  260000    4980.4948    18987.691    976076.42    1317.8166   -6565.2011    10.555174 
  261000    5089.4789    18799.692    1018129.7    1346.6533   -6519.5544    10.660727 
  262000    5051.0154    18905.836    987909.03     1336.476   -6579.5845    10.600874 
  263000    4885.8886    18842.751    1002849.2    1292.7842   -6549.7974    10.636366 
  264000    5017.7269    18834.094    1006797.2     1327.668   -6544.0687    10.641255 
  265000    4943.1536    18931.771    988798.91    1307.9363   -6545.3577    10.586352 
  266000    5014.5199     18906.43      1001536    1326.8195   -6508.0525    10.600541 
  267000    5152.2517    18871.182    995705.59    1363.2627   -6580.1775    10.620341 
  268000    4853.3036    18847.611    998085.08    1284.1624   -6566.7689    10.633623 
  269000    4887.5428    18823.844    1010638.2    1293.2219   -6521.5309    10.647049 
  270000    4940.4565    18828.735    1013378.5    1307.2226   -6509.0875    10.644283 
  271000    4938.2232    18882.946    988566.76    1306.6317   -6586.3285    10.613725 
  272000     5036.536    18834.359    999249.82    1332.6448   -6586.8352    10.641105 
  273000    5044.8022    18871.691    998039.93     1334.832   -6556.2464    10.620055 
  274000    4961.9114    18851.712    997058.58    1312.8995   -6571.5822    10.631309 
  275000    4940.6763    18852.717    1006338.2    1307.2808   -6521.4485    10.630743 
  276000    4957.9269     18891.04    992655.88    1311.8452   -6561.4939    10.609177 
  277000    5106.5155     18995.53    980096.28    1351.1611   -6560.1114    10.550819 
  278000    4968.4517     18835.42      1010986      1314.63   -6518.5307    10.640505 
  279000     5050.605    18776.356    1018813.8    1336.3675   -6525.1116    10.673977 
  280000    5040.0532    18908.951    991901.79    1333.5755   -6553.5085    10.599128 
  281000    4827.0889    18908.568    985706.21    1277.2261   -6572.7555    10.599342 
  282000     5066.924    18825.066    1009375.3    1340.6854   -6540.4109    10.646357 
  283000    4937.3161    18881.168    1002149.9    1306.3917   -6528.7692    10.614724 
  284000    4898.2192    18912.484    988543.84    1296.0469   -6564.2648    10.597148 
  285000    4998.2998    18795.883    1017615.7    1322.5277   -6516.2175    10.662887 
  286000     4862.667    18874.202    1002154.8    1286.6399   -6524.4091    10.618642 
  287000    4984.8283    18987.563    971552.91    1318.9632   -6593.5838    10.555245 
  288000    4984.3683    18875.934    1003290.1    1318.8415   -6521.5481    10.617667 
  289000    4945.1509    18798.558    1016496.1    1308.4648   -6511.9569     10.66137 
  290000    4965.4084     18915.54    988205.17    1313.8248   -6563.4775    10.595435 
  291000    5023.1886    18953.578    984965.76    1329.1132   -6561.4581    10.574172 
  292000    4892.5682    18772.761    1020463.3    1294.5516   -6511.8573    10.676021 
  293000    5115.2757    18917.838    992274.46     1353.479    -6546.395    10.594149 
  294000    4925.3715    18864.735    996458.93    1303.2312   -6561.7449     10.62397 
  295000    5025.2218    18854.037    1003895.6    1329.6512   -6544.1099    10.629999 
  296000    4999.2676    18875.427    995779.09    1322.7838    -6566.576    10.617952 
  297000    4926.8587    18905.748    985841.28    1303.6247   -6586.4078    10.600924 
  298000    5108.2216    18824.873    1017083.9    1351.6125   -6503.7314    10.646467 
  299000    4942.4707     18898.63    985930.51    1307.7556   -6590.0558    10.604916 
  300000    4944.7911    18864.549     999140.5    1308.3696    -6554.436    10.624075 
Loop time of 119.348 on 8 procs for 50000 steps with 2048 atoms

Performance: 36.197 ns/day, 0.663 hours/ns, 418.942 timesteps/s
127.2% CPU use with 4 MPI tasks x 2 OpenMP threads

MPI task timing breakdown:
Section |  min time  |  avg time  |  max time  |%varavg| %total
---------------------------------------------------------------
Pair    | 73.6       | 74.182     | 74.863     |   5.6 | 62.16
Neigh   | 1.4865     | 1.509      | 1.5234     |   1.2 |  1.26
Comm    | 5.3758     | 6.0599     | 6.6661     |  20.0 |  5.08
Output  | 0.0011555  | 0.0018863  | 0.0021327  |   1.0 |  0.00
Modify  | 37.364     | 37.371     | 37.386     |   0.1 | 31.31
Other   |            | 0.2245     |            |       |  0.19

Nlocal:        512.000 ave         517 max         507 min
Histogram: 1 0 0 0 1 0 1 0 0 1
Nghost:        3182.50 ave        3190 max        3172 min
Histogram: 1 0 0 0 0 1 0 1 0 1
Neighs:        50532.0 ave       51768 max       48975 min
Histogram: 1 0 0 0 0 1 0 1 0 1

Total # of neighbors = 202128
Ave neighs/atom = 98.695312
Neighbor list builds = 1341
Dangerous builds = 0

unfix temp
unfix out_file_1


write_data after_${sim}_press_$P_$T.in
write_data after_heating_press_$P_$T.in
write_data after_heating_press_1000000_$T.in
write_data after_heating_press_1000000_5000.in
System init for write_data ...
Last active /omp style is pair_style eam/alloy/omp
write_restart after_${sim}_press_$P_$T.lmp
write_restart after_heating_press_$P_$T.lmp
write_restart after_heating_press_1000000_$T.lmp
write_restart after_heating_press_1000000_5000.lmp
System init for write_restart ...
Last active /omp style is pair_style eam/alloy/omp

next loopVar  #<----->
jump in.lmp ensemble

print """
Label pachadi solti, hos garam.
"""

Label pachadi solti, hos garam.

variable T equal 4800+${loopVar}*100  #<----->
variable T equal 4800+3*100  
# variable T equal 2750


reset_timestep 0
fix 1 all npt temp $T $T $(dt*100) iso $P $P $(dt*1000)
fix 1 all npt temp 5100 $T $(dt*100) iso $P $P $(dt*1000)
fix 1 all npt temp 5100 5100 $(dt*100) iso $P $P $(dt*1000)
fix 1 all npt temp 5100 5100 0.10000000000000000555 iso $P $P $(dt*1000)
fix 1 all npt temp 5100 5100 0.10000000000000000555 iso 1000000 $P $(dt*1000)
fix 1 all npt temp 5100 5100 0.10000000000000000555 iso 1000000 1000000 $(dt*1000)
fix 1 all npt temp 5100 5100 0.10000000000000000555 iso 1000000 1000000 1
print """
<--------------------------------------------------------------------->
<------------------ Equilibrating at temperature $T ----------------->
<--------------------------------------------------------------------->
"""

<--------------------------------------------------------------------->
<------------------ Equilibrating at temperature 5100 ----------------->
<--------------------------------------------------------------------->

fix temp all print 1000 "$(step) $(temp) $(press) ${sys_press} $(vol) $(ke) $(pe) $(density)" file temp_${sim}.txt screen no title  "step temp press pressGiga vol ke pe density"
fix temp all print 1000 "$(step) $(temp) $(press) ${sys_press} $(vol) $(ke) $(pe) $(density)" file temp_heating.txt screen no title  "step temp press pressGiga vol ke pe density"
run 250000
Last active /omp style is pair_style eam/alloy/omp
Per MPI rank memory allocation (min/avg/max) = 4.357 | 4.358 | 4.359 Mbytes
Step Temp Volume Press KinEng PotEng Density 
       0    4944.7911    18864.549     999140.5    1308.3696    -6554.436    10.624075 
    1000    5102.9649     18907.96    998815.51    1350.2216   -6531.3332    10.599683 
    2000    4960.1942    18863.337      1004239    1312.4452   -6526.6217    10.624758 
    3000     4939.232    18884.773    1003279.6    1306.8986   -6512.4267    10.612698 
    4000    5143.5159    18946.339    991811.29    1360.9512   -6530.4661    10.578212 
    5000    5052.2443    18940.886    998567.66    1336.8012   -6495.4108    10.581257 
    6000    5196.2543    18901.939    1002419.6    1374.9056   -6531.9669     10.60306 
    7000    5179.1901    18862.608    1007703.4    1370.3905   -6527.9618    10.625169 
    8000    5018.3685    19040.162    964529.95    1327.8378   -6593.7206    10.526086 
    9000    5235.0413    18873.824      1005965    1385.1685   -6530.9281    10.618854 
   10000    5198.7282    18894.335    1004165.9    1375.5602   -6514.8652    10.607327 
   11000    4971.6518    18923.341    995424.83    1315.4768    -6521.208    10.591068 
   12000    5156.8447    18970.284    988431.76     1364.478    -6530.329     10.56486 
   13000    5170.7426    18847.223    1010792.9    1368.1553   -6518.8584    10.633841 
   14000    5025.7696    18863.157      1011647    1329.7961     -6495.87    10.624859 
   15000    5165.7285    18964.043    992693.78    1366.8286   -6523.8372    10.568336 
   16000    5080.8106    18849.397    1005874.8    1344.3597   -6531.8875    10.632615 
   17000    5111.8084    18925.176    992265.96    1352.5616   -6548.4478    10.590041 
   18000    5089.9758    18837.053    1015498.4    1346.7848   -6501.4952    10.639583 
   19000     5111.091    18898.996    997810.98    1352.3718   -6544.9728    10.604711 
   20000    5215.5047    18973.009    991169.63    1379.9992   -6523.4184    10.563342 
   21000    5130.4308    18841.323      1017577     1357.489   -6496.0373    10.637172 
   22000    5208.9028    18985.692    982147.24    1378.2523    -6561.508    10.556285 
   23000     5182.238    18822.228    1021243.5    1371.1969   -6489.3636    10.647963 
   24000    4986.8203    18884.792    1012489.4    1319.4903   -6468.1201    10.612687 
   25000    5046.0748    18934.204    987453.58    1335.1688   -6561.9853    10.584992 
   26000    5155.8339    18917.882      1007150    1364.2105   -6479.7049    10.594124 
   27000     5123.288     18892.85    999822.34     1355.599    -6530.557    10.608161 
   28000    5098.1383    18875.073    1003517.8    1348.9445   -6531.3668    10.618152 
   29000    5029.7961    19002.824    971993.52    1330.8615   -6588.6107    10.546769 
   30000    5039.9393    18882.745    1002323.5    1333.5453   -6532.6792    10.613837 
   31000    5168.7309    18812.233    1026407.4     1367.623   -6472.0098     10.65362 
   32000    5078.1051    18972.263    980796.68    1343.6439   -6571.3875    10.563757 
   33000    5284.4725    18915.538    999596.76    1398.2477   -6526.9001    10.595437 
   34000    4939.1205    18870.387      1006784    1306.8691   -6504.6105    10.620788 
   35000    5250.5822    19002.807    981427.48    1389.2805   -6553.9775    10.546778 
   36000    5036.0943    18958.478    982526.27     1332.528   -6568.1808    10.571438 
   37000    5205.2084    18800.726    1034215.4    1377.2748   -6443.6576    10.660141 
   38000    5064.9235    18953.349    984830.42    1340.1561   -6556.7169      10.5743 
   39000    5159.5495    18989.031    982972.01    1365.1937   -6548.9606    10.554429 
   40000    5123.4966    18900.566    1004300.1    1355.6542   -6511.3206     10.60383 
   41000    5090.6195    18825.131    1023839.8    1346.9551   -6466.0556    10.646321 
   42000    4992.2892    18890.414    999876.29    1320.9373   -6524.9656    10.609529 
   43000    5087.0847    18907.038    999467.57    1346.0198   -6527.3586      10.6002 
   44000    5097.4765    18871.823    1003662.7    1348.7694   -6529.0637     10.61998 
   45000    5019.0729    18860.674    1001383.5    1328.0242    -6547.605    10.626258 
   46000    5087.4202    18876.342    1006650.9    1346.1086   -6515.9445    10.617438 
   47000    5089.7235    18870.182    1006051.7     1346.718   -6523.3164    10.620904 
   48000    5052.1345    18914.127    988206.89    1336.7721   -6578.5594    10.596227 
   49000    5203.3913    18919.172    999237.83     1376.794   -6519.4162    10.593402 
   50000    5015.8667    18831.015      1020113    1327.1758   -6479.8108    10.642994 
   51000    5072.4177    18827.196    1008655.1     1342.139   -6536.6815    10.645153 
   52000    5091.2845    18904.025    995064.67    1347.1311   -6549.0568    10.601889 
   53000    5118.1453    18908.384    991555.18    1354.2383   -6564.1624    10.599446 
   54000    5000.7675    18762.914    1026408.4    1323.1807    -6495.885    10.681623 
   55000    5164.9856    18933.286    988931.33     1366.632    -6557.898    10.585504 
   56000    5051.7128     18920.09    994127.36    1336.6606   -6536.3506    10.592888 
   57000    5173.2778    18886.133    1001433.3    1368.8261    -6532.862    10.611933 
   58000    5173.6355     18811.95    1020780.9    1368.9208   -6507.6283     10.65378 
   59000    5028.2051    18911.463    986477.16    1330.4405    -6580.361     10.59772 
   60000      5013.13    18879.426    1004542.2    1326.4517   -6517.3912    10.615703 
   61000    5021.7581    18851.449    1017635.5    1328.7347   -6470.3515    10.631458 
   62000    4984.4158    18893.345    1004087.6    1318.8541   -6509.4985    10.607883 
   63000    5036.0275    18947.191    996585.62    1332.5103   -6497.7554    10.577736 
   64000    5009.8511    18820.724    1016745.4    1325.5841   -6504.1359    10.648814 
   65000    5129.2515    18874.615    998172.15     1357.177   -6555.3458    10.618409 
   66000    5030.4282    18974.239    982971.55    1331.0287    -6550.051    10.562658 
   67000    5311.1826    18825.113    1027700.1    1405.3151   -6471.1992    10.646331 
   68000     5143.571    18862.234    1004752.2    1360.9658   -6535.5106    10.625379 
   69000    5020.3826    18868.131    999229.64    1328.3707   -6548.7828    10.622058 
   70000    5043.7202    18822.948    1017084.3    1334.5458   -6500.1353    10.647555 
   71000    5131.1644    18895.629      1003121    1357.6831    -6522.572    10.606601 
   72000    5107.6842    18991.189    986187.12    1351.4703   -6526.0423     10.55323 
   73000    5120.7432    18929.791    995735.62    1354.9257   -6535.2867    10.587459 
   74000    5083.2476    18803.656      1016407    1345.0045   -6529.8137     10.65848 
   75000    5234.8132    18996.103    984138.23    1385.1081   -6544.0843      10.5505 
   76000    5140.2763    18916.064    995256.29    1360.0941    -6548.599    10.595142 
   77000    5001.2008    18808.324    1026554.5    1323.2953   -6467.0159    10.655835 
   78000    5166.0461    18884.025    1004961.7    1366.9126   -6519.1664    10.613118 
   79000    5060.4561    19021.815    971347.31     1338.974   -6577.8858    10.536239 
   80000     4932.994    18863.028    1010093.2    1305.2481   -6493.7721    10.624932 
   81000    5093.3176    18853.209      1015646     1347.669   -6487.4724    10.630465 
   82000    5205.1915    19022.118    973443.63    1377.2703   -6574.1202    10.536071 
   83000    5107.5656    18859.561    1005067.9     1351.439   -6533.4533    10.626885 
   84000    5215.3761     18841.66    1013034.4    1379.9651   -6513.8214    10.636981 
   85000    5131.7092    18962.509    982395.42    1357.8273   -6566.7692    10.569191 
   86000    5216.5181    18994.806     982047.7    1380.2673   -6548.2352     10.55122 
   87000    5212.0339    18838.176    1011602.8    1379.0808   -6518.2505    10.638948 
   88000    4986.3311    18854.061    1006688.9    1319.3609   -6527.4771    10.629985 
   89000     4997.086    18957.931    984969.07    1322.2066   -6550.7664    10.571744 
   90000    5102.6896    18801.841    1025741.5    1350.1488   -6472.4221    10.659509 
   91000    5215.2708    19013.586    975349.98    1379.9373   -6572.5731    10.540799 
   92000    5176.3851    18987.513    981482.33    1369.6483   -6554.7547    10.555273 
   93000    5175.8392     18831.79      1006424    1369.5038   -6558.0595    10.642556 
   94000    5199.2936    18898.806    999009.46    1375.7098   -6542.8156    10.604817 
   95000    4944.1679    18885.574    1005072.7    1308.2047   -6500.0734    10.612248 
   96000     5053.408    18876.675      1006339    1337.1091   -6516.9635    10.617251 
   97000    5032.0698    18913.185    997066.49    1331.4631   -6522.5315    10.596755 
   98000    5127.9223    19017.487    974083.59    1356.8253   -6566.8526    10.538637 
   99000    5083.2047    18839.399    1011951.3    1344.9932    -6516.916    10.638258 
  100000    5053.7837    18895.106    1003954.1    1337.2085    -6507.788    10.606894 
  101000    5109.8389    18986.671    984947.65    1352.0405   -6540.4495    10.555741 
  102000    5033.4165    18866.417    1002108.5    1331.8194   -6534.1281    10.623023 
  103000    5104.1088    18974.511    983000.75    1350.5243   -6551.5185    10.562506 
  104000    4927.4247    18851.878    1009162.2    1303.7745   -6507.0481    10.631216 
  105000    4974.9259    18905.722    1004671.5    1316.3431   -6490.6406    10.600938 
  106000     5029.992    18891.263    996597.04    1330.9133   -6547.2128    10.609052 
  107000    5092.1609    18819.314    1017551.4    1347.3629   -6506.4006    10.649612 
  108000    5080.0192     18975.11    983186.07    1344.1503   -6552.4564    10.562173 
  109000    5056.3977    18944.452    981516.53    1337.9002     -6587.12    10.579266 
  110000    5074.4392    18750.455      1041658    1342.6739    -6432.916    10.688721 
  111000     5104.587    18874.671    1006352.6    1350.6508   -6519.5918    10.618378 
  112000    5045.2465    18951.842    990091.46    1334.9496   -6528.6109     10.57514 
  113000    5240.9695    18902.768    1007521.1     1386.737   -6496.3079    10.602594 
  114000    5105.0645    18839.645    1009452.2    1350.7772   -6524.5302    10.638119 
  115000    5272.4774    18931.287    999433.58    1395.0739   -6527.3672    10.586622 
  116000     5067.227    18912.303     993203.7    1340.7655   -6548.8023    10.597249 
  117000    5340.7351    18899.565    1007873.9    1413.1346   -6499.6262    10.604391 
  118000    5102.0104    18842.076    1018438.3    1349.9691   -6482.6907    10.636747 
  119000    5071.0899    18976.903    974372.33    1341.7877   -6591.8861    10.561175 
  120000    4925.6164    18911.252    992376.86     1303.296    -6544.654    10.597838 
  121000    5105.9188    18819.923    1016163.3    1351.0032   -6511.7999    10.649267 
  122000    5032.6314     18865.67    1008147.2    1331.6117   -6510.4737    10.623444 
  123000    5208.1238    18956.645    982297.93    1378.0462   -6583.5632    10.572461 
  124000    5255.8121    18918.758     990906.9    1390.6643   -6570.8883    10.593633 
  125000    5179.7978    18912.578    1006010.8    1370.5513   -6485.9904    10.597095 
  126000    4916.1676    18903.465    989649.97    1300.7959   -6563.6268    10.602204 
  127000    5294.7602    18908.358    1004079.1    1400.9698   -6514.2388     10.59946 
  128000    5092.9388    18860.361    1010347.7    1347.5688    -6502.994    10.626434 
  129000    5046.6288    18936.322    980652.86    1335.3154   -6603.8257    10.583807 
  130000    5061.3298    18897.215    1001011.3    1339.2052   -6524.6407     10.60571 
  131000    5067.2796    18904.514    996317.44    1340.7795   -6541.0735    10.601616 
  132000    5042.9836    18958.273    981376.88    1334.3509   -6567.1803    10.571553 
  133000    5206.6348    18800.383    1030268.6    1377.6522   -6461.1278    10.660335 
  134000     5094.734    18842.225    1007438.3    1348.0438   -6540.2964    10.636662 
  135000     5045.704    18947.816    980556.41    1335.0707    -6583.041    10.577387 
  136000    5099.3751    18913.381      1001061    1349.2718   -6510.9177    10.596645 
  137000    5181.7838     18873.23      1010648    1371.0768   -6497.2583    10.619188 
[...]
  120000    5353.2786    18991.984    996623.19    1416.4535   -6492.8922    10.552788 
  121000    5386.0208    18956.781    999660.99    1425.1169   -6508.7682    10.572385 
  122000    5437.4578    18975.664    1011005.4     1438.727   -6434.1146    10.561864 
  123000    5372.0473     18909.62    1014265.2    1421.4196   -6466.5083    10.598753 
  124000    5367.2766    19077.081    984846.91    1420.1573   -6483.3075    10.505716 
  125000    5403.8483    18993.323    983595.93     1429.834   -6559.3723    10.552044 
  126000    5369.1614    18938.231    1008771.2     1420.656   -6474.4321    10.582741 
  127000    5469.6577    19009.389    996341.68    1447.2469   -6482.4363    10.543126 
  128000    5236.9271    18997.094    996969.94    1385.6674   -6474.9186     10.54995 
  129000    5456.8844    19022.381    985394.33    1443.8672   -6525.4802    10.535925 
  130000      5340.23    18920.167    1027546.7    1413.0009   -6390.5276    10.592845 
  131000    5355.0833    18967.535    1004346.9     1416.931   -6472.9679    10.566391 
  132000    5154.2948    18982.745    990385.38    1363.8033   -6516.4709    10.557925 
  133000    5401.0011    19004.697      1000523    1429.0807   -6466.9093    10.545729 
  134000    5423.7389    18882.682    1017041.2     1435.097   -6476.3255    10.613873 
  135000    5364.9668    19007.106      1001332    1419.5462   -6455.9413    10.544393 
  136000     5212.239    19048.159    986607.49    1379.1351   -6490.9619    10.521667 
  137000    5283.1358    18894.279    1021818.2    1397.8941   -6434.5816    10.607358 
  138000    5537.5762    18924.306    1014218.8    1465.2178   -6467.2108    10.590528 
  139000    5319.5613    18912.848      1010280    1407.5321   -6486.3355    10.596944 
  140000    5324.0093    19038.146     990830.4     1408.709   -6482.4962    10.527201 
  141000    5285.4345    18959.071    1001299.5    1398.5023   -6493.0728    10.571108 
  142000    5450.2507     18963.41    997614.95    1442.1119   -6510.2759    10.568689 
  143000    5342.3032    19002.839      1008906    1413.5495    -6414.637     10.54676 
  144000    5421.9018    18996.797    990362.17    1434.6109   -6521.6861    10.550115 
  145000    5480.2839    19027.633     998627.1    1450.0586   -6465.6565    10.533017 
  146000    5492.1416    18995.482    993144.75    1453.1961   -6515.6933    10.550845 
  147000    5414.3849     18958.13    1002229.1     1432.622   -6489.8228    10.571633 
  148000     5328.238    18923.242    1017168.2    1409.8279     -6434.44    10.591123 
  149000    5306.6192    19118.353    972155.92    1404.1077   -6510.6114    10.483036 
  150000    5370.3467    19080.391    984459.68    1420.9697   -6475.9063    10.503893 
  151000    5282.0174    18972.246    1004316.2    1397.5981   -6461.6275    10.563767 
  152000     5331.278    18959.289    1009567.5    1410.6323   -6446.8096    10.570986 
  153000    5577.0546    18876.925    1027825.3    1475.6636   -6437.9722     10.61711 
  154000    5322.5857    19023.287    993417.93    1408.3323   -6475.9029    10.535423 
  155000    5268.7398    18954.729    1000935.1    1394.0849   -6482.0259     10.57353 
  156000    5422.5064    18974.817    1002518.1    1434.7709   -6478.3502    10.562336 
  157000    5421.1176    19027.861     991521.5    1434.4034    -6490.854    10.532891 
  158000    5418.7164    19046.926    979776.44    1433.7681   -6540.0446    10.522348 
  159000    5321.7045    19014.243    992587.73    1408.0992   -6482.8952    10.540434 
  160000    5474.5392     18961.26    1012385.6    1448.5385   -6445.2962    10.569888 
  161000    5325.9232    18945.988    997488.25    1409.2154   -6518.9197    10.578408 
  162000    5374.9456     18965.99    1003454.4    1422.1865   -6470.0162    10.567251 
  163000    5390.2383     18955.91    1014953.1    1426.2329   -6430.6329    10.572871 
  164000    5481.5937    18962.733    1003481.6    1450.4051   -6488.4363    10.569067 
  165000    5307.6246    19013.569    983491.37    1404.3737   -6540.7165    10.540808 
  166000    5489.5573    18998.364       993923    1452.5122   -6500.7643    10.549245 
  167000    5474.2655    18922.015    1019480.5    1448.4661   -6441.2531     10.59181 
  168000    5543.0755    18986.761    998732.13    1466.6729   -6497.8145    10.555691 
  169000    5394.4236    18988.714    1001063.3    1427.3403   -6468.7677    10.554605 
  170000    5512.2157    18987.436       999947    1458.5076   -6489.0943    10.555316 
  171000    5347.6447     18913.06    1018232.3    1414.9628   -6449.0342    10.596825 
  172000    5323.7577    19049.637    987211.14    1408.6424   -6491.3193     10.52085 
  173000    5377.0782    19047.034    988774.39    1422.7508   -6492.5914    10.522288 
  174000    5574.7415    18979.663    1007426.2    1475.0516   -6463.7148    10.559639 
  175000    5424.4705    18902.177    1011257.9    1435.2906   -6497.6212    10.602926 
  176000    5417.5081    19066.122     981859.5    1433.4483    -6509.426    10.511754 
  177000    5374.2456    19069.407    975364.39    1422.0013   -6541.5307    10.509943 
  178000    5429.3978     18960.88    1006997.6    1436.5943   -6469.5787    10.570099 
  179000    5378.0152    18960.351    1005375.4    1422.9987   -6469.6948    10.570394 
  180000    5231.1085    19042.531    986065.56    1384.1279   -6498.7035    10.524777 
  181000    5461.5616    19035.731    988608.95    1445.1047   -6498.4568    10.528536 
  182000    5394.8316    19008.164    997615.42    1427.4482   -6476.3022    10.543806 
  183000    5394.7356    18921.955    1011042.1    1427.4229   -6476.5837    10.591844 
  184000    5425.3948     18943.33    1009639.7    1435.5351   -6469.2484    10.579892 
  185000    5420.6342    19006.284    989118.57    1434.2755   -6515.3483    10.544848 
  186000    5298.4768    18996.337    988463.41    1401.9532   -6519.7482     10.55037 
  187000    5662.5041    18897.239    1018616.1    1498.2732   -6475.9486    10.605697 
  188000    5418.1998    19015.359    997375.94    1433.6314   -6480.2485    10.539816 
  189000    5377.3009    19046.555    972852.42    1422.8097    -6563.799    10.522553 
  190000    5531.7272     19032.82    988798.77    1463.6702   -6513.0448    10.530147 
  191000    5326.7637    18955.153    1007862.4    1409.4378   -6474.4847    10.573293 
  192000    5503.8919    18981.848    999649.48    1456.3051   -6489.3637    10.558423 
  193000    5399.5446    18942.486    1001825.7    1428.6953   -6501.2655    10.580364 
  194000    5215.7481    19014.717    998797.64    1380.0636   -6447.0166    10.540172 
  195000    5334.7166    18998.017    994578.27    1411.5421   -6491.4604    10.549437 
  196000    5461.5675    18945.161      1012662    1445.1063   -6451.8278    10.578869 
  197000    5495.9327    18985.962    998507.44    1454.1992   -6491.2708    10.556135 
  198000    5341.0538    19044.156    989276.21    1413.2189   -6483.9877    10.523879 
  199000    5625.0478     19008.71    998532.54    1488.3624   -6492.0852    10.543502 
  200000    5350.4188    18996.388    989555.39    1415.6968   -6517.4389    10.550342 
  201000    5451.6827    18964.059    1010058.4    1442.4908   -6448.6445    10.568328 
  202000    5454.4613    19012.041    998366.72     1443.226   -6467.9376    10.541655 
  203000    5431.0108    19009.583    989850.76    1437.0211   -6515.5722    10.543019 
  204000    5586.2304    19042.446    989058.33    1478.0915   -6501.5111    10.524824 
  205000    5383.8343    18949.594    1010264.8    1424.5384   -6446.1956    10.576395 
  206000    5348.8675    18901.396    1009168.3    1415.2864   -6500.5227    10.603364 
  207000    5447.2847    18990.048    1002693.1    1441.3271   -6466.0099    10.553864 
  208000    5426.9347    19016.281    994856.35    1435.9426   -6482.9521    10.539305 
  209000     5521.091    18925.729    1019938.2    1460.8559   -6436.5752    10.589731 
  210000    5442.7939    18947.961    1014670.8    1440.1389   -6441.0004    10.577306 
  211000    5319.3009    18949.811      1002838    1407.4632   -6495.8046    10.576274 
  212000    5448.5449     19098.81    972670.73    1441.6605   -6532.1005    10.493763 
  213000    5370.9164    19040.257    986810.89    1421.1204   -6502.7246    10.526034 
  214000    5496.5087    18918.548    1030434.8    1454.3516   -6387.3817    10.593751 
  215000    5398.9172    19028.136    987657.99    1428.5293   -6505.0413    10.532739 
  216000    5324.6601    19046.828    981006.37    1408.8812   -6530.7847    10.522402 
  217000    5438.3971    19045.677    999373.41    1438.9755   -6431.6008    10.523038 
  218000     5651.499    18988.785    994203.56    1495.3613    -6532.061    10.554566 
  219000    5524.4387    18967.643    998907.43    1461.7417   -6509.4841    10.566331 
  220000    5506.2589    18842.269    1032256.9    1456.9314   -6448.1041    10.636638 
  221000    5286.2911    18965.777    1003992.7    1398.7289   -6480.9113     10.56737 
  222000     5442.716    19075.272    973714.79    1440.1183   -6541.8094    10.506712 
  223000    5539.0213    18993.177    1003117.7    1465.6002   -6469.4752    10.552125 
  224000    5462.0265    18959.205    1005910.6    1445.2277    -6477.159    10.571033 
  225000    5411.3273    19010.856    1000254.6     1431.813    -6462.679    10.542313 
  226000    5420.2131    18980.197    1000925.1    1434.1641   -6482.9542    10.559342 
  227000    5316.3662    19149.845    955443.28    1406.6867   -6569.1589    10.465797 
  228000    5769.2663     19046.56    985649.75     1526.522   -6523.4992     10.52255 
  229000    5476.8109    18933.742    1016454.9    1449.1396   -6441.0042     10.58525 
  230000    5370.6694     18960.23    1000781.8    1421.0551   -6486.1777    10.570462 
  231000    5244.7653    18983.733    997583.92    1387.7414   -6483.2738    10.557375 
  232000    5467.7054    18974.608    1010840.2    1446.7303   -6433.8922    10.562452 
  233000    5330.7397    18928.701      1015982    1410.4898    -6438.882    10.588069 
  234000    5355.3053     18997.36    991634.18    1416.9898   -6517.2603    10.549802 
  235000    5239.8542    18944.018    1011355.4    1386.4419   -6444.6678    10.579508 
  236000    5444.3819    18976.287    1009807.4     1440.559   -6432.5575    10.561518 
  237000    5445.6723    18983.666    986205.76    1440.9005   -6553.7804    10.557412 
  238000    5473.0335    19081.494    975735.11    1448.1401   -6530.4152    10.503286 
  239000    5442.9737     18930.25    1008722.1    1440.1864    -6489.209    10.587202 
  240000    5592.1349    18874.646    1023258.3    1479.6538   -6468.9155    10.618392 
  241000    5417.0412    18987.207    1002778.2    1433.3248   -6465.4911    10.555443 
  242000    5402.1422    18980.894    990538.05    1429.3826   -6529.3437    10.558954 
  243000    5449.0447    18977.687    997738.89    1441.7928   -6516.6585    10.560738 
  244000     5526.594    18995.801    1000211.4     1462.312   -6476.2264    10.550668 
  245000     5271.318    19024.782    988713.55    1394.7671   -6505.3921    10.534595 
  246000    5360.1352    18928.843    1020200.8    1418.2677   -6424.0662    10.587989 
  247000    5449.0092    18879.221    1019981.3    1441.7834   -6474.8355    10.615818 
  248000    5520.3676    18996.754    1002270.5    1460.6645   -6467.6388    10.550139 
  249000    5397.1171    19035.931     987617.2     1428.053   -6504.4581    10.528426 
  250000    5550.9131    18939.629      1001471    1468.7467   -6529.1444    10.581959 
Loop time of 593.279 on 8 procs for 250000 steps with 2048 atoms

Performance: 36.408 ns/day, 0.659 hours/ns, 421.387 timesteps/s
127.3% CPU use with 4 MPI tasks x 2 OpenMP threads

MPI task timing breakdown:
Section |  min time  |  avg time  |  max time  |%varavg| %total
---------------------------------------------------------------
Pair    | 363.32     | 367.72     | 373.28     |  20.0 | 61.98
Neigh   | 7.4428     | 7.5602     | 7.627      |   2.6 |  1.27
Comm    | 24.759     | 30.335     | 34.878     |  70.6 |  5.11
Output  | 0.006176   | 0.011467   | 0.013241   |   2.9 |  0.00
Modify  | 186.44     | 186.5      | 186.58     |   0.4 | 31.44
Other   |            | 1.151      |            |       |  0.19

Nlocal:        512.000 ave         520 max         505 min
Histogram: 1 0 1 0 0 0 1 0 0 1
Nghost:        3175.25 ave        3183 max        3159 min
Histogram: 1 0 0 0 0 0 0 1 0 2
Neighs:        50366.8 ave       52320 max       47634 min
Histogram: 1 0 0 0 0 1 0 1 0 1

Total # of neighbors = 201467
Ave neighs/atom = 98.372559
Neighbor list builds = 7113
Dangerous builds = 0


# fix 132 all momentum 100 linear 1 1 1 angular
fix out_file_1 all print 1000 "$(step) $(temp) $(press) ${sys_press} $(vol) $(ke) $(pe) $(density)" file one_phase_${sim}_press_$P_$T_.txt screen no title  "step temp press pressGiga vol ke pe density"
fix out_file_1 all print 1000 "$(step) $(temp) $(press) ${sys_press} $(vol) $(ke) $(pe) $(density)" file one_phase_heating_press_$P_$T_.txt screen no title  "step temp press pressGiga vol ke pe density"
fix out_file_1 all print 1000 "$(step) $(temp) $(press) ${sys_press} $(vol) $(ke) $(pe) $(density)" file one_phase_heating_press_1000000_$T_.txt screen no title  "step temp press pressGiga vol ke pe density"
fix out_file_1 all print 1000 "$(step) $(temp) $(press) ${sys_press} $(vol) $(ke) $(pe) $(density)" file one_phase_heating_press_1000000_5400_.txt screen no title  "step temp press pressGiga vol ke pe density"

# dump 3 all custom 1000 traj_npt_new.lammpstrj id type x y z
run 50000
Last active /omp style is pair_style eam/alloy/omp
Per MPI rank memory allocation (min/avg/max) = 4.357 | 4.359 | 4.359 Mbytes
Step Temp Volume Press KinEng PotEng Density 
  250000    5550.9131    18939.629      1001471    1468.7467   -6529.1444    10.581959 
  251000    5442.1525    18978.807    1006992.7    1439.9692   -6448.3656    10.560115 
  252000    5412.8892    18989.845    990411.53    1432.2262   -6526.6096    10.553977 
  253000    5375.3993    18975.815    1004571.3    1422.3065   -6471.1797     10.56178 
  254000    5656.8486    18897.275      1028286    1496.7768   -6430.7233    10.605676 
  255000    5209.0549    19030.135    985741.02    1378.2926   -6502.9323    10.531633 
  256000    5468.7821    19042.517    983584.64    1447.0152   -6520.4383    10.524784 
  257000    5609.2715    18966.028    1004954.8    1484.1881    -6488.317     10.56723 
  258000    5346.8971     19027.77    998900.31     1414.765    -6450.575    10.532941 
  259000    5260.4705    19050.478     983677.2    1391.8969   -6508.3075    10.520386 
  260000    5420.7312    18976.759      1002221    1434.3012   -6477.1552    10.561255 
  261000    5454.6956    18880.482    1016452.5     1443.288    -6485.726     10.61511 
  262000    5361.8173    18982.574      1002140    1418.7128   -6472.7399    10.558019 
  263000    5339.9563    18986.205    993475.81    1412.9285   -6506.3158    10.556001 
  264000    5414.1101    18939.941    1010627.3    1432.5492   -6460.6038    10.581785 
  265000    5484.6616    18965.425    1007458.2    1451.2169   -6468.4265    10.567566 
  266000    5339.7518     19005.57    996754.05    1412.8744   -6478.7025    10.545245 
  267000    5232.6116    19020.926    991603.23    1384.5256   -6481.8293    10.536731 
  268000    5476.4019    18979.859    1006691.3    1449.0314   -6450.6892     10.55953 
  269000    5413.4784    18997.082     998417.7    1432.3821   -6485.1084    10.549956 
  270000     5297.143    18942.866    1006267.9    1401.6003   -6479.2787    10.580151 
  271000    5539.0416    19076.763    978469.01    1465.6056   -6534.1114    10.505891 
  272000    5490.6776    19007.889    990765.02    1452.8087   -6518.0968    10.543958 
  273000    5416.4985    19005.223       998694    1433.1812   -6474.9489    10.545437 
  274000    5399.0608    18966.596    1013481.4    1428.5673   -6426.4526    10.566914 
  275000     5323.281    18990.032    1004724.7    1408.5163   -6453.0567    10.553873 
  276000    5366.5531    19126.392    972577.44    1419.9659   -6505.1246     10.47863 
  277000     5369.469    18966.609    1002148.9    1420.7374   -6482.3756    10.566906 
  278000    5540.1401    18972.108    1003978.3    1465.8962   -6475.4593    10.563844 
  279000    5492.4439    19043.384    984563.99     1453.276   -6516.9547    10.524305 
  280000    5483.9105    18955.777    996669.37    1451.0181   -6530.7101    10.572945 
  281000    5396.6349    19003.957    1002008.7    1427.9254     -6460.27     10.54614 
  282000    5278.3859     19074.49    980112.95    1396.6372   -6503.4255    10.507143 
  283000    5412.2533    18900.455    1018064.4     1432.058   -6466.3564    10.603892 
  284000    5378.4547    18960.194    1004883.4     1423.115   -6472.4884    10.570482 
  285000    5710.8782    19039.995    997764.81    1511.0728   -6472.5775    10.526179 
  286000    5415.7693    18991.741    998813.58    1432.9883   -6484.8598    10.552923 
  287000    5286.0009    18988.784      1002325    1398.6521   -6454.9621    10.554567 
  288000    5390.9004     19037.77    984338.71    1426.4081   -6520.0367    10.527409 
  289000    5394.0953    18969.168    1004408.6    1427.2534   -6473.9382    10.565481 
  290000    5595.3272    18931.014      1015502    1480.4985   -6467.7219    10.586775 
  291000     5518.213     18982.39    1003354.6    1460.0944   -6478.1298    10.558122 
  292000    5424.7324    19029.756    986651.18    1435.3599   -6521.4097    10.531842 
  293000     5556.885    18961.159    1007104.2    1470.3269   -6481.1326    10.569944 
  294000    5436.9152    19033.956     992121.9    1438.5834   -6488.8374    10.529518 
  295000    5490.0714    18976.184    1001094.2    1452.6483   -6480.7893    10.561575 
  296000    5400.2768    18941.226    1009088.2     1428.889   -6471.2943    10.581067 
  297000    5229.8802    18945.309    1007497.7    1383.8029   -6469.9448    10.578787 
  298000    5225.0498    19079.261    979639.85    1382.5248   -6504.0623    10.504515 
  299000    5490.3935    18984.898    1000919.1    1452.7335   -6482.7255    10.556727 
  300000    5416.3449     18913.91    1018655.8    1433.1406    -6439.249    10.596349 
Loop time of 122.703 on 8 procs for 50000 steps with 2048 atoms

Performance: 35.207 ns/day, 0.682 hours/ns, 407.490 timesteps/s
125.8% CPU use with 4 MPI tasks x 2 OpenMP threads

MPI task timing breakdown:
Section |  min time  |  avg time  |  max time  |%varavg| %total
---------------------------------------------------------------
Pair    | 75.398     | 76.241     | 77.296     |   8.3 | 62.14
Neigh   | 1.5247     | 1.5475     | 1.5599     |   1.1 |  1.26
Comm    | 6.2119     | 7.2742     | 8.1468     |  27.2 |  5.93
Output  | 0.0011812  | 0.0018991  | 0.0021387  |   1.0 |  0.00
Modify  | 37.384     | 37.395     | 37.409     |   0.1 | 30.48
Other   |            | 0.2427     |            |       |  0.20

Nlocal:        512.000 ave         524 max         505 min
Histogram: 1 0 2 0 0 0 0 0 0 1
Nghost:        3162.75 ave        3170 max        3154 min
Histogram: 1 0 1 0 0 0 0 0 0 2
Neighs:        50531.5 ave       53639 max       48545 min
Histogram: 2 0 0 0 1 0 0 0 0 1

Total # of neighbors = 202126
Ave neighs/atom = 98.694336
Neighbor list builds = 1429
Dangerous builds = 0

unfix temp
unfix out_file_1


write_data after_${sim}_press_$P_$T.in
write_data after_heating_press_$P_$T.in
write_data after_heating_press_1000000_$T.in
write_data after_heating_press_1000000_5400.in
System init for write_data ...
Last active /omp style is pair_style eam/alloy/omp
write_restart after_${sim}_press_$P_$T.lmp
write_restart after_heating_press_$P_$T.lmp
write_restart after_heating_press_1000000_$T.lmp
write_restart after_heating_press_1000000_5400.lmp
System init for write_restart ...
Last active /omp style is pair_style eam/alloy/omp

next loopVar  #<----->
jump in.lmp ensemble
























Total wall time: 1:11:58
