LAMMPS data file via write_data, version 19 Mar 2020, timestep = 500000

864 atoms
2 atom types

-2.8202921942421000e-01 1.7609441219421146e+01 xlo xhi
-2.8202921942421000e-01 1.7609441219421146e+01 ylo yhi
-5.6405843884842000e-01 3.5218882438842293e+01 zlo zhi

Masses

1 58.71
2 26.982

Atoms # atomic

87 1 2.7275771601316454e+00 2.5359859061938161e+00 2.2447914888318454e+00 0 0 0
2 2 1.0999309308504934e+00 1.1920819870048458e+00 9.2273840623869430e-01 0 0 0
85 1 -1.8210533768889497e-01 2.5306662938175180e+00 2.3759544620302595e+00 0 0 0
74 2 1.4563350464902205e+00 1.2103035423473418e+00 3.7529028104532260e+00 0 0 0
4 2 4.1234485615191900e+00 1.2256316563957135e+00 7.4547903989487008e-01 0 0 0
14 2 1.2169509163619059e+00 4.0396839716861095e+00 1.0222947838611189e+00 0 0 0
3 1 2.5348993770604555e+00 -8.3809522185084973e-02 -5.4007943192294439e-01 0 0 0
13 1 -7.0066083337740642e-02 2.9127566068877506e+00 -3.7868857877870921e-01 0 0 0
751 1 2.5975346076234556e+00 2.3666164343555836e+00 -2.8404922552091511e-01 1 -1 1
16 2 4.1975010867579838e+00 4.1228082778029957e+00 7.4146614505074626e-01 0 0 0
89 1 5.8440127034002680e+00 2.8111218045953432e+00 2.2254924072704876e+00 0 0 0
6 2 7.2265921136795122e+00 1.1164486650619028e+00 1.2092842457601882e+00 0 0 0
78 2 7.4081811215095943e+00 1.2744539195124096e+00 3.8164224187886022e+00 0 0 0
18 2 7.3300610405347157e+00 4.1378273840539581e+00 5.9508378310481347e-01 0 0 0
76 2 4.4862484660783570e+00 1.0659936205824858e+00 3.8455938714969937e+00 0 0 0
88 2 4.3324078051355546e+00 4.1388282002357943e+00 3.8063071042381358e+00 0 0 0
17 1 5.8279495050981192e+00 2.5270587139485863e+00 -5.4616023301691863e-01 0 0 0
599 1 5.9728914321006892e+00 -6.2804715080936629e-02 -2.0997319635670081e-01 1 0 1
91 1 8.6997001854493554e+00 2.8862816769404964e+00 2.0399741558987827e+00 0 0 0
93 1 1.1584667936945905e+01 2.6771888602548968e+00 2.2049905897450803e+00 0 0 0
8 2 1.0215179153466581e+01 1.4111517894236332e+00 7.6038590145677598e-01 0 0 0
82 2 1.3063946972768830e+01 1.2016656105237953e+00 3.8319143300822827e+00 0 0 0
22 2 1.3092991205578436e+01 4.1616151081701878e+00 9.8391452419266190e-01 0 0 0
92 2 1.0175125813004231e+01 4.0930993566961842e+00 3.7327371069684023e+00 0 0 0
79 1 8.9339691690786918e+00 -1.1339910846299925e-01 2.3981010300161612e+00 0 0 0
81 1 1.1699766045190486e+01 -2.5987453301299512e-01 2.3359050566064847e+00 0 0 0
80 2 1.0286392604602865e+01 1.2775805400493463e+00 3.8617733355402448e+00 0 0 0
7 1 8.7843782244871225e+00 -6.9528875564621173e-03 -5.1288836493126810e-01 0 0 0
10 2 1.3177761635438136e+01 1.2743914404612127e+00 8.3184288651206684e-01 0 0 0
95 1 1.4553581974022205e+01 2.7001457834311036e+00 2.3786529748209704e+00 0 0 0
12 2 1.6475806793976627e+01 1.0613068031894419e+00 9.3823358830016401e-01 0 0 0
83 1 1.4514803264088997e+01 -2.1277732696109208e-01 2.4167072566066268e+00 0 0 0
24 2 1.5918773315615077e+01 4.0650556825754798e+00 1.0917095077225691e+00 0 0 0
96 2 1.6165247419185878e+01 4.0547751427830159e+00 3.7935944278930007e+00 0 0 0
11 1 1.4610766874140916e+01 -2.5263105593674973e-01 -4.5648638308391370e-01 0 0 0
99 1 2.5598682301819116e+00 5.2874079509071263e+00 2.4940676601460257e+00 0 0 0
26 2 1.1957051224094011e+00 6.9205627201852762e+00 1.0562013711903810e+00 0 0 0
28 2 4.0464194994859737e+00 7.1644873275643004e+00 1.1598887835286431e+00 0 0 0
97 1 -7.4301386279642334e-02 5.3913672798068726e+00 2.4172748724540236e+00 0 0 0
98 2 1.3370443129247240e+00 7.0150582672138579e+00 3.8258294366130468e+00 0 0 0
111 1 2.5113916570313748e+00 8.5242323106872782e+00 2.5855723333567457e+00 0 0 0
39 1 2.4482412723676847e+00 8.5266485281926592e+00 -2.8671569593048285e-01 0 0 0
27 1 2.8839748902454221e+00 5.3788585249881180e+00 -5.5724254068208812e-01 0 0 0
90 2 7.3000041033335341e+00 4.2078415600408601e+00 3.5840934424167319e+00 0 0 0
101 1 5.4981195536682979e+00 5.4960675193806843e+00 2.2803090091146365e+00 0 0 0
30 2 7.1118525715729932e+00 6.8465767954921928e+00 7.6160837124516112e-01 0 0 0
115 1 8.6489000077188400e+00 8.2773798105251331e+00 2.2643425431141382e+00 0 0 0
113 1 5.6241232410104232e+00 8.3278893265961482e+00 2.5462120188385717e+00 0 0 0
20 2 1.0231387455195017e+01 4.2701668217054456e+00 5.9021215478504385e-01 0 0 0
103 1 8.8587103672011249e+00 5.6447125870558912e+00 2.3558301000937862e+00 0 0 0
105 1 1.1493994794025260e+01 5.6713016073856819e+00 2.1323657896684258e+00 0 0 0
32 2 1.0104869017514632e+01 7.0195026421836566e+00 7.4281066700161147e-01 0 0 0
104 2 1.0514495807266595e+01 7.0534238951939940e+00 3.7320439538530614e+00 0 0 0
839 1 1.5013970455818052e+01 5.2820266814589054e+00 -9.2253945726602671e-02 -1 -1 1
109 1 1.7591586742130790e+01 8.5999431202019547e+00 2.4994437234435694e+00 -1 0 0
25 1 1.7595510459781302e+01 5.5671615348758108e+00 -5.3405269798409805e-01 -1 0 0
106 2 1.3177537621646499e+01 7.0729055573388973e+00 3.6173657782421085e+00 0 0 0
34 2 1.3205063240420991e+01 7.1873643925544757e+00 7.9589144581891280e-01 0 0 0
107 1 1.4488768944665191e+01 5.4841767602046527e+00 2.3589949450980159e+00 0 0 0
36 2 1.6317757994472345e+01 7.1073842492834256e+00 9.4760561212322525e-01 0 0 0
108 2 1.6059608530783009e+01 6.9789521513546973e+00 3.6124258695073559e+00 0 0 0
123 1 2.9287763575390158e+00 1.1660023469217780e+01 2.5384468793769916e+00 0 0 0
38 2 1.3393724528861179e+00 1.0211339344982383e+01 9.0962401941779447e-01 0 0 0
112 2 4.1886176469667458e+00 9.9153835339241301e+00 3.8483893905111772e+00 0 0 0
121 1 -2.1348502037215222e-01 1.1746039004684924e+01 2.5670891212958478e+00 0 0 0
40 2 4.1817461208276825e+00 1.0028435885565589e+01 9.8124897677034162e-01 0 0 0
110 2 1.1475404133249547e+00 1.0095028220278680e+01 3.8261491264797121e+00 0 0 0
49 1 -2.6693627044781992e-01 1.1790513039845907e+01 -1.9414277556918480e-01 0 0 0
51 1 2.8107269296264441e+00 1.1928624483679165e+01 -4.9013415535583754e-01 0 0 0
723 1 7.8235990463428529e+00 8.9314733950312757e+00 -5.5022344432801251e-01 -1 0 1
125 1 5.7169742951236131e+00 1.1743046349837108e+01 2.5095395871029371e+00 0 0 0
42 2 7.0915432192842855e+00 1.0038191349102931e+01 9.0363583737278175e-01 0 0 0
53 1 5.7354793433545392e+00 1.1680590882928479e+01 -3.5827840168341163e-01 0 0 0
41 1 5.5881740463624503e+00 8.8308481292759886e+00 -3.9906482450838976e-01 0 0 0
114 2 7.2121127278434418e+00 9.8059947106315395e+00 3.8218856162088635e+00 0 0 0
55 1 8.4926055870395434e+00 1.1587050390677314e+01 -4.3594124087604341e-01 0 0 0
117 1 1.1721673129883584e+01 8.6895541482040777e+00 2.1218769291013033e+00 0 0 0
127 1 8.7209434685519991e+00 1.1557615783420472e+01 2.6011711266589401e+00 0 0 0
129 1 1.1497239329222122e+01 1.1551179531553107e+01 2.4288745893855226e+00 0 0 0
44 2 9.9992932906858982e+00 1.0076637020241082e+01 1.0497120028184745e+00 0 0 0
116 2 1.0196550510814378e+01 9.9184199019842207e+00 3.9032687617465598e+00 0 0 0
46 2 1.3080928093748073e+01 1.0092696994973640e+01 9.3353090611030787e-01 0 0 0
58 2 1.3082162131231911e+01 1.2810330574932753e+01 1.1148274173661210e+00 0 0 0
118 2 1.3071739093557738e+01 1.0165741833359137e+01 3.7643996844005407e+00 0 0 0
57 1 1.1231875021059906e+01 1.1640144295025696e+01 -5.1892345117157257e-01 0 0 0
119 1 1.4659562183270905e+01 8.6655807039793444e+00 2.2544111312648001e+00 0 0 0
131 1 1.4575277321132777e+01 1.1458595665592849e+01 2.5245607025244485e+00 0 0 0
48 2 1.6353403461040063e+01 1.0170083203892545e+01 1.0519623083284915e+00 0 0 0
120 2 1.6110591534435301e+01 9.9352784360513038e+00 3.8237205390946256e+00 0 0 0
37 1 1.7508483176842581e+01 8.7980438133558199e+00 -3.9355549610601226e-01 -1 0 0
47 1 1.4536273490950265e+01 8.7825691628331732e+00 -3.3410997603504955e-01 0 0 0
59 1 1.4758507066914961e+01 1.1622528669815111e+01 -1.7406394362466909e-01 0 0 0
73 1 -1.2431188335720242e-01 1.7327177534957997e+01 2.2739135063136588e+00 0 -1 0
75 1 2.8041513334787806e+00 1.7556644820413986e+01 2.3262972057103335e+00 0 -1 0
50 2 1.4955942449000503e+00 1.3148007129776879e+01 1.1811861446605534e+00 0 0 0
135 1 2.7502761547909031e+00 1.4708286298794439e+01 2.0362548163275966e+00 0 0 0
62 2 1.2293605164891539e+00 1.6067449399185609e+01 8.4533853516365554e-01 0 0 0
133 1 -1.7347018451197932e-01 1.4551487577804460e+01 2.5154304406788639e+00 0 0 0
63 1 2.6525880123827985e+00 1.4558641470599991e+01 -5.5003701586188236e-01 0 0 0
64 2 4.1393174072840271e+00 1.6162917635411009e+01 6.8977932490691818e-01 0 0 0
61 1 -2.4670772346403780e-01 1.4679430020130345e+01 -3.1948704553882423e-01 0 0 0
589 1 -2.2133255122836579e-01 1.7340857519784606e+01 -3.6237551470836132e-01 0 0 1
77 1 5.5582908900054022e+00 1.7496287923569344e+01 2.3801759706116070e+00 0 -1 0
52 2 4.3520330520855550e+00 1.3259814276155295e+01 1.0157709535128954e+00 0 0 0
54 2 7.2974772277447606e+00 1.3245250286307337e+01 1.1276252647244540e+00 0 0 0
137 1 5.8138229540640438e+00 1.4528450132536307e+01 2.7235630802833328e+00 0 0 0
66 2 7.2300385661919817e+00 1.6414488238518043e+01 9.8410803022675553e-01 0 0 0
139 1 8.6442838737303305e+00 1.4997633408841573e+01 2.3786822571693453e+00 0 0 0
67 1 8.5898371979394668e+00 1.4573492584085663e+01 -3.5340985430744942e-01 0 0 0
138 2 7.0908827765718261e+00 1.6161807117409207e+01 3.6404042013511990e+00 0 0 0
65 1 5.7654037083595764e+00 1.4875438163679474e+01 -4.4426813869062404e-01 0 0 0
56 2 9.9099787766285523e+00 1.3141010023901542e+01 9.7056126603787973e-01 0 0 0
141 1 1.1597206380384865e+01 1.4826883412866957e+01 2.2297170572546121e+00 0 0 0
68 2 1.0048697502698175e+01 1.6421602285023351e+01 9.1381488635063834e-01 0 0 0
70 2 1.3104092422061692e+01 1.6224720078586369e+01 7.8269744716490242e-01 0 0 0
130 2 1.3087491649536636e+01 1.3268361630743319e+01 3.7852594081947135e+00 0 0 0
128 2 1.0193218506781157e+01 1.3158952180542475e+01 3.7530558859118486e+00 0 0 0
69 1 1.1637028229651017e+01 1.4789595780530384e+01 -4.4709422534820054e-01 0 0 0
60 2 1.6099935062135142e+01 1.3394793053803356e+01 1.1210565657057050e+00 0 0 0
143 1 1.4499255845986458e+01 1.4700010283229652e+01 2.4281114661888488e+00 0 0 0
72 2 1.5956937390545299e+01 1.6049547696670807e+01 9.0512185546168333e-01 0 0 0
144 2 1.6149128474481781e+01 1.5903348541817305e+01 3.7049018238947609e+00 0 0 0
71 1 1.4438400546325759e+01 1.4343777865296621e+01 -4.2916384377508510e-01 0 0 0
86 2 1.3546798357340717e+00 4.1094564571900207e+00 4.0696118209336252e+00 0 0 0
159 1 2.6853268152635619e+00 2.5940696054455343e+00 5.3419701938371000e+00 0 0 0
146 2 8.7917553666214343e-01 1.4150695565309734e+00 6.6870512664688659e+00 0 0 0
147 1 2.5797228459232491e+00 -9.7657387988220073e-02 5.4245737992582752e+00 0 0 0
148 2 4.0940210257699432e+00 1.1877569474429381e+00 6.9997887488019854e+00 0 0 0
158 2 1.1708217751169860e+00 4.0361058907346639e+00 6.9415165960547771e+00 0 0 0
219 1 2.5077579899338973e+00 -2.5461213912390074e-01 8.0794250848857985e+00 0 0 0
161 1 5.8545944049467336e+00 2.7092038115659220e+00 5.2363372577595655e+00 0 0 0
150 2 7.3674573669723600e+00 1.1925321846448094e+00 6.9150214393219667e+00 0 0 0
160 2 4.3328763988995513e+00 3.9243962095410359e+00 6.8096109398437994e+00 0 0 0
162 2 7.1928915482047620e+00 3.9438172971035836e+00 6.7386647473855357e+00 0 0 0
149 1 5.9867493923167805e+00 -2.5744566215331260e-01 5.4745445060575086e+00 0 0 0
163 1 8.6708332255757217e+00 2.6876652632891074e+00 5.1895369486227692e+00 0 0 0
165 1 1.1592752226562673e+01 2.7903206254858239e+00 5.3647395252810837e+00 0 0 0
152 2 9.9814450428666195e+00 1.5104396604771460e+00 7.0652165951418153e+00 0 0 0
151 1 8.7742071391587046e+00 -7.3488143633811093e-02 5.4361924066996483e+00 0 0 0
153 1 1.1691478731815788e+01 -1.6375611630052173e-01 5.4661166561678325e+00 0 0 0
225 1 1.1815084432778200e+01 -1.0909016736094565e-01 8.1884968779687490e+00 0 0 0
94 2 1.3386235060814231e+01 4.1657555614319532e+00 3.9963125998072808e+00 0 0 0
84 2 1.6054128193837251e+01 8.7334146129917412e-01 3.9321396300499121e+00 0 0 0
157 1 1.7494950764503120e+01 2.6202988407646348e+00 5.2477529997216390e+00 -1 0 0
154 2 1.3244458159837450e+01 1.2446274334414822e+00 6.9268165633171570e+00 0 0 0
167 1 1.4668348200442315e+01 2.5141137265938962e+00 5.2350524512262027e+00 0 0 0
156 2 1.6161537873901903e+01 9.8411821300526947e-01 6.8025405510254187e+00 0 0 0
166 2 1.3456331636480583e+01 4.1666803994594597e+00 6.9747584112366932e+00 0 0 0
168 2 1.6338386756492412e+01 3.7906355016274071e+00 7.2829975597846488e+00 0 0 0
100 2 4.0028974466632175e+00 6.8044756240332722e+00 4.0039781624849571e+00 0 0 0
171 1 2.9292893853380053e+00 5.3634823467935542e+00 5.5138898522633193e+00 0 0 0
170 2 1.1179126767187157e+00 7.0174608798982696e+00 6.8488335215948135e+00 0 0 0
183 1 2.4333276663039047e+00 8.6111149113750720e+00 5.3989171781585670e+00 0 0 0
255 1 2.7653208712685458e+00 8.5358126435722212e+00 8.2889194428930129e+00 0 0 0
243 1 2.6910003763677870e+00 5.5501218642421168e+00 8.3138669248208448e+00 0 0 0
241 1 -1.7464899624065355e-01 5.6684885477379776e+00 8.3176617434334528e+00 0 0 0
102 2 7.2859375061707770e+00 6.8883898372853505e+00 3.9743981711818384e+00 0 0 0
172 2 4.2866547279338789e+00 7.0656936190915420e+00 6.8243318209220396e+00 0 0 0
173 1 5.6102412429300150e+00 5.5997924176320772e+00 5.4274151997739271e+00 0 0 0
174 2 7.1874567730079812e+00 6.8643608656187967e+00 6.8564401099242058e+00 0 0 0
245 1 5.3481163408159551e+00 5.3211862799100711e+00 8.3545187359999318e+00 0 0 0
185 1 5.6888691629261467e+00 8.4127106886126253e+00 5.2565626244336183e+00 0 0 0
187 1 8.4161502685867209e+00 8.4707010484972276e+00 5.3469665045100907e+00 0 0 0
257 1 5.4616434618834031e+00 8.6077033833475873e+00 8.3799847707041852e+00 0 0 0
175 1 8.7252345557487025e+00 5.5512026420864009e+00 5.4484225213371493e+00 0 0 0
164 2 1.0302282588170375e+01 4.3310313346048988e+00 6.9060333263971598e+00 0 0 0
177 1 1.1867864490878212e+01 5.6112752448065217e+00 5.3970280354887183e+00 0 0 0
176 2 1.0301259655937505e+01 7.2159997640058036e+00 6.8769044421442773e+00 0 0 0
189 1 1.1524986274367134e+01 8.5729679426933743e+00 5.2505071818464160e+00 0 0 0
249 1 1.1789075985922249e+01 5.7016584126328649e+00 8.2470383394713949e+00 0 0 0
169 1 1.7365200417260560e+01 5.4899040298795212e+00 5.6574180919255213e+00 -1 0 0
178 2 1.3208416624679886e+01 7.0400993638298921e+00 6.9388329951567211e+00 0 0 0
179 1 1.5009720529866470e+01 5.5975299870962001e+00 5.7083063868442423e+00 0 0 0
180 2 1.6163209884624028e+01 7.2126860835934981e+00 7.1842987458724279e+00 0 0 0
181 1 1.7518449758722827e+01 8.5001789292088166e+00 5.4295785163644563e+00 -1 0 0
195 1 2.7025010326560350e+00 1.1317210113885288e+01 5.2871631379284416e+00 0 0 0
182 2 1.2123377942939564e+00 1.0115882871657904e+01 7.0721086755647047e+00 0 0 0
194 2 1.2424838741434094e+00 1.3095581278988742e+01 6.6422042855542864e+00 0 0 0
124 2 4.4783892140974562e+00 1.3025905459720883e+01 4.0731169714498412e+00 0 0 0
184 2 4.2460117499630661e+00 9.8602963991654597e+00 6.5840674377037800e+00 0 0 0
197 1 5.7615958405884298e+00 1.1283723569177479e+01 5.3329361370181507e+00 0 0 0
186 2 7.1199229917242741e+00 9.9119551818294802e+00 7.0130933492992593e+00 0 0 0
126 2 7.3796270708838048e+00 1.2979578267427227e+01 4.0277991523944099e+00 0 0 0
198 2 7.1482293827060674e+00 1.3084788350072639e+01 6.7726812323146159e+00 0 0 0
269 1 5.6889329443923797e+00 1.1535293767217594e+01 8.0084230224780875e+00 0 0 0
196 2 4.1917587282801945e+00 1.2949997931093774e+01 6.7386685001948070e+00 0 0 0
199 1 8.7375684445695825e+00 1.1504540296635463e+01 5.2942000620598924e+00 0 0 0
201 1 1.1548686834040756e+01 1.1767327563552877e+01 5.1018151245443084e+00 0 0 0
188 2 1.0015072189703153e+01 1.0133228363038539e+01 6.7114121674433989e+00 0 0 0
202 2 1.2972104853954445e+01 1.3087755488650936e+01 7.0055597666670009e+00 0 0 0
132 2 1.5980201770432608e+01 1.3103286241155288e+01 3.9416945256909433e+00 0 0 0
191 1 1.4582299522203904e+01 8.7327202150010805e+00 5.2382212422478336e+00 0 0 0
193 1 1.7463870081801218e+01 1.1499062666488769e+01 5.1716634375631987e+00 -1 0 0
190 2 1.3248514553543279e+01 1.0051188011338880e+01 6.8012653926598627e+00 0 0 0
203 1 1.4708083735525124e+01 1.1378860064567819e+01 5.3556805276091222e+00 0 0 0
192 2 1.6310819124889235e+01 9.9274605292340148e+00 6.7768755028745220e+00 0 0 0
204 2 1.5783267048872997e+01 1.3035829566817258e+01 6.8520595584537460e+00 0 0 0
265 1 1.7605072223801514e+01 1.1516575034590586e+01 8.2429103506004591e+00 -1 0 0
275 1 1.4652305415696080e+01 1.1388997751509908e+01 8.3608253021616417e+00 0 0 0
122 2 1.5476056668126932e+00 1.3168052732788230e+01 4.0005021102399860e+00 0 0 0
145 1 -1.8916402018883377e-01 1.7455787637379967e+01 5.0377484557571979e+00 0 -1 0
134 2 1.3822689573856992e+00 1.5983066111622833e+01 3.9734259878489970e+00 0 0 0
207 1 2.7401770292828385e+00 1.4496481542083446e+01 5.4137655310646489e+00 0 0 0
206 2 1.2112050622973214e+00 1.6149555272263449e+01 6.6872291901948913e+00 0 0 0
279 1 2.6942210215200975e+00 1.4627329314949444e+01 8.0612902950421379e+00 0 0 0
136 2 3.9715429409286358e+00 1.6212647723730282e+01 3.9236371378616264e+00 0 0 0
277 1 -2.6277197543923342e-01 1.4410378887325093e+01 8.1283842931362891e+00 0 0 0
208 2 4.2348957301145536e+00 1.6201515271112012e+01 6.8165004533856948e+00 0 0 0
209 1 6.0259741574248915e+00 1.4818961867401262e+01 5.4374115783145136e+00 0 0 0
210 2 7.5511858405662160e+00 1.6245953275794061e+01 6.8105069608246263e+00 0 0 0
281 1 5.8926064817984507e+00 1.4808940050518238e+01 8.1748991479901498e+00 0 0 0
142 2 1.3049713321319118e+01 1.6080040731935885e+01 3.9810290058774713e+00 0 0 0
211 1 8.7244185603683828e+00 1.4579160496672138e+01 5.2688230485045340e+00 0 0 0
140 2 1.0172391338765152e+01 1.6215778437374617e+01 4.1257530819129107e+00 0 0 0
200 2 9.9275700906858084e+00 1.3214374641018969e+01 7.0500550733797267e+00 0 0 0
213 1 1.1677568584836312e+01 1.4554512917157266e+01 5.3989773059925348e+00 0 0 0
212 2 1.0156854968906563e+01 1.6316436511670421e+01 6.8625180428334893e+00 0 0 0
214 2 1.3089615432228797e+01 1.5968128771246857e+01 7.0738973754566494e+00 0 0 0
285 1 1.1408520995606724e+01 1.4751144246029073e+01 8.2724372537341218e+00 0 0 0
155 1 1.4376737311135173e+01 1.7379782917668262e+01 5.3570560392246467e+00 0 -1 0
205 1 1.7447064977581039e+01 1.4578653809528639e+01 5.4205170383824317e+00 -1 0 0
215 1 1.4513715966016324e+01 1.4660018752236669e+01 5.4859984950069158e+00 0 0 0
216 2 1.6096779156950756e+01 1.6098702073538885e+01 6.8928899659819445e+00 0 0 0
287 1 1.4866272069620612e+01 1.4803616410673540e+01 8.3522094188491707e+00 0 0 0
229 1 -1.7846812470059392e-01 2.6879111546200023e+00 8.7390604832203724e+00 0 0 0
231 1 2.7312973908500995e+00 2.6108162420934340e+00 8.4865024849816262e+00 0 0 0
303 1 2.8010995849165070e+00 2.3949927723124063e+00 1.1566397107648362e+01 0 0 0
218 2 1.2702681873501858e+00 9.9155461088550223e-01 9.9154735071964968e+00 0 0 0
230 2 1.1719111997794316e+00 3.9624631901765923e+00 1.0225817721896954e+01 0 0 0
220 2 4.1075896131435350e+00 1.0903661785767655e+00 9.6497317906465021e+00 0 0 0
291 1 2.9819862640058772e+00 -2.2862994924957911e-01 1.1459689569460915e+01 0 0 0
232 2 4.1529630725881059e+00 3.9428485302741922e+00 1.0098834283161835e+01 0 0 0
301 1 -1.9132392053704944e-01 2.7865594736075510e+00 1.1509138831884867e+01 0 0 0
221 1 5.7973153930004226e+00 -2.2545653102935218e-01 8.3859974187355402e+00 0 0 0
304 2 4.2389415582457710e+00 4.0047535211930603e+00 1.2836220001643936e+01 0 0 0
233 1 5.7666344940234691e+00 2.6367355217460724e+00 8.4067318360177925e+00 0 0 0
305 1 5.7800946098025463e+00 2.5900755804334019e+00 1.1313544473077526e+01 0 0 0
222 2 7.1891309721712453e+00 9.9647657935282741e-01 9.8781967081795017e+00 0 0 0
234 2 7.0791831672136745e+00 4.0126548139133060e+00 1.0003987320016378e+01 0 0 0
307 1 8.5112199155478265e+00 2.6433435352800507e+00 1.1439659477463351e+01 0 0 0
294 2 6.9501685797091994e+00 1.1157805530366181e+00 1.2817875508557474e+01 0 0 0
306 2 6.9816397396262868e+00 4.0572027748763100e+00 1.2743585618970819e+01 0 0 0
237 1 1.1560031871276044e+01 2.6837626133786485e+00 8.4013578409532048e+00 0 0 0
223 1 8.8397059153711481e+00 -5.5221844079976323e-02 8.5432700569011519e+00 0 0 0
235 1 8.8474762020180240e+00 2.5466327118771752e+00 8.5351705500348842e+00 0 0 0
309 1 1.1861362416825088e+01 2.7719138596404127e+00 1.1423458451325534e+01 0 0 0
224 2 1.0186101644179573e+01 1.4387839999680401e+00 9.9929646353342392e+00 0 0 0
297 1 1.1620018933379031e+01 -2.2125448971015688e-01 1.1377472605531274e+01 0 0 0
296 2 1.0166574995866169e+01 1.1991042598202071e+00 1.2786968525533513e+01 0 0 0
226 2 1.3280148744936312e+01 1.1399668007051469e+00 9.9150370261267007e+00 0 0 0
239 1 1.4738165416110752e+01 2.6170343391716466e+00 8.4876235659734434e+00 0 0 0
311 1 1.4832678943010183e+01 2.4447070559859188e+00 1.1493894894270724e+01 0 0 0
228 2 1.6343653137568257e+01 1.2992198017714436e+00 9.9886092963861799e+00 0 0 0
238 2 1.3312288747724589e+01 4.0293551880868730e+00 9.9247909151955724e+00 0 0 0
227 1 1.4733230825153390e+01 -2.1704714681605730e-01 8.4501012165561757e+00 0 0 0
315 1 2.6579178427050674e+00 5.6756866299438329e+00 1.1594581751253894e+01 0 0 0
242 2 1.1653929765333222e+00 6.8019044663157420e+00 9.8004469478250034e+00 0 0 0
327 1 2.8386494726890206e+00 8.3973055988042073e+00 1.1410585196766789e+01 0 0 0
244 2 4.0077623261857607e+00 6.8506462276564095e+00 9.9207542815558618e+00 0 0 0
313 1 -1.9500196567585784e-01 5.4891274005067512e+00 1.1586554390263872e+01 0 0 0
325 1 -2.3397252984989636e-01 8.4335716881942204e+00 1.1537296858344455e+01 0 0 0
259 1 8.5606271265274785e+00 8.4032885589118234e+00 8.4228468753598733e+00 0 0 0
317 1 5.5182614654315882e+00 5.6790650544255961e+00 1.1357792605672362e+01 0 0 0
246 2 7.0560695216546154e+00 6.9729410618327297e+00 9.7160882788874012e+00 0 0 0
318 2 7.2675917677765716e+00 7.2108399090166664e+00 1.2784940696455404e+01 0 0 0
319 1 8.5935373346046795e+00 5.5497621352054383e+00 1.1297883927193224e+01 0 0 0
247 1 8.8656191065043224e+00 5.6629251336837321e+00 8.4188185782833465e+00 0 0 0
261 1 1.1826798844142251e+01 8.6251677644530513e+00 8.4078288940360384e+00 0 0 0
236 2 1.0388196264870688e+01 4.4275694066689573e+00 9.7969319038565903e+00 0 0 0
321 1 1.1836929151777912e+01 5.6815648226965374e+00 1.1559152164841812e+01 0 0 0
248 2 1.0418180416597959e+01 7.1209445165148937e+00 9.9817741463674405e+00 0 0 0
331 1 8.7214107266108112e+00 8.5166326286074341e+00 1.1267144219652385e+01 0 0 0
250 2 1.3013864894523733e+01 7.0461686441606810e+00 1.0003144568901044e+01 0 0 0
320 2 1.0123900158171299e+01 7.0858563731070330e+00 1.2724458364796519e+01 0 0 0
240 2 1.6157410432666694e+01 4.2996369742538700e+00 1.0103643205939623e+01 0 0 0
253 1 1.7606962966830277e+01 8.4329777464533784e+00 8.5789689496887487e+00 -1 0 0
251 1 1.4526073396739998e+01 5.5571804071629929e+00 8.4531697740092913e+00 0 0 0
323 1 1.4699972280811258e+01 5.5873924996465973e+00 1.1624129411141743e+01 0 0 0
252 2 1.6057471518042046e+01 7.1892437069199646e+00 1.0098408832370607e+01 0 0 0
263 1 1.4909080473429555e+01 8.5690467522924259e+00 8.5886202776936109e+00 0 0 0
267 1 2.5627666247100578e+00 1.1668107911689896e+01 8.4055173315112963e+00 0 0 0
339 1 2.5646283512549899e+00 1.1473489645393023e+01 1.1522761000424723e+01 0 0 0
254 2 1.2668123729699412e+00 1.0021585193495097e+01 1.0027128047743764e+01 0 0 0
256 2 4.1133567011762606e+00 1.0268287662467635e+01 9.6282080456160219e+00 0 0 0
337 1 -1.0562088008483397e-01 1.1612708402546044e+01 1.1226814264511376e+01 0 0 0
340 2 4.1113744514321366e+00 1.2843327877235033e+01 1.2658819223090589e+01 0 0 0
326 2 1.3021746014313986e+00 9.7924152834160516e+00 1.2837959746598782e+01 0 0 0
329 1 5.5428049928098391e+00 8.7136993035396806e+00 1.1346330232312619e+01 0 0 0
341 1 5.8601666824210419e+00 1.1514151519424932e+01 1.1394106672902744e+01 0 0 0
258 2 7.1100832196049906e+00 1.0055095838429946e+01 9.8822445232792440e+00 0 0 0
270 2 7.1505103610368073e+00 1.3107721757963853e+01 9.8559792746040031e+00 0 0 0
330 2 7.5145126493146783e+00 1.0073857699062417e+01 1.2828339757020574e+01 0 0 0
344 2 1.0187549935254783e+01 1.2840653358956221e+01 1.2776300462104713e+01 0 0 0
271 1 8.7637321082272166e+00 1.1516202446994534e+01 8.4505177329244070e+00 0 0 0
273 1 1.1629853221204955e+01 1.1448414820964633e+01 8.4034457777220339e+00 0 0 0
333 1 1.1786072507777048e+01 8.7375441133765559e+00 1.1589171078447670e+01 0 0 0
343 1 8.8234929163215625e+00 1.1616806989581880e+01 1.1286667310377267e+01 0 0 0
345 1 1.1578931578189108e+01 1.1457656249904939e+01 1.1514733884447066e+01 0 0 0
260 2 1.0188227489882797e+01 1.0093559150886831e+01 9.8329488570409751e+00 0 0 0
332 2 1.0083745755746747e+01 1.0190419910006876e+01 1.2833709140702659e+01 0 0 0
262 2 1.3173945411545805e+01 1.0244883846168126e+01 9.8874176964527347e+00 0 0 0
335 1 1.4651302453040490e+01 8.8174642980321565e+00 1.1280556430091204e+01 0 0 0
347 1 1.4850550693324399e+01 1.1583978300492459e+01 1.1154452282573315e+01 0 0 0
264 2 1.6343694908756813e+01 1.0059666784149016e+01 1.0052524227251173e+01 0 0 0
274 2 1.3181574157145970e+01 1.3100949952261544e+01 9.7233494076033544e+00 0 0 0
348 2 1.6350629332536386e+01 1.2950912837284484e+01 1.2633168608376330e+01 0 0 0
266 2 1.0228354146145680e+00 1.3348817403520499e+01 9.8779846412987666e+00 0 0 0
268 2 4.1653919164545625e+00 1.3242573475287887e+01 9.6730892722243187e+00 0 0 0
351 1 2.8826254494292449e+00 1.4898591368055651e+01 1.1313532515624752e+01 0 0 0
278 2 1.4555569602998268e+00 1.6071162056828687e+01 9.8382040432699576e+00 0 0 0
349 1 -1.7717342914735873e-01 1.4708246427678377e+01 1.1357427099278503e+01 0 0 0
352 2 4.0718929487838862e+00 1.6093229843851724e+01 1.2829613750288267e+01 0 0 0
293 1 5.6100277756372821e+00 1.7384862387195426e+01 1.1099524517316024e+01 0 -1 0
280 2 4.1914332544103088e+00 1.6147379156834496e+01 9.6439929670057332e+00 0 0 0
353 1 5.6678478738117564e+00 1.4673423526659592e+01 1.1510157183593263e+01 0 0 0
282 2 7.2776435576622500e+00 1.6116679694252380e+01 9.6926296344593919e+00 0 0 0
355 1 8.3682866912513152e+00 1.4540126306841703e+01 1.1449774894586215e+01 0 0 0
295 1 8.6103823757742912e+00 1.7430717652159128e+01 1.1415908058658664e+01 0 -1 0
354 2 7.0215136079255398e+00 1.6056368600418491e+01 1.2819623308357963e+01 0 0 0
356 2 1.0123345377424808e+01 1.5980776175203868e+01 1.2664194205786300e+01 0 0 0
272 2 1.0168434458355962e+01 1.3217347516848228e+01 9.9278837628619350e+00 0 0 0
283 1 8.8310576593645198e+00 1.4950346368598080e+01 8.4383362587240658e+00 0 0 0
357 1 1.1710707905322224e+01 1.4513315249205858e+01 1.1461827239257225e+01 0 0 0
284 2 1.0377691915204384e+01 1.6275929464156899e+01 1.0018860316396802e+01 0 0 0
286 2 1.3002906717532072e+01 1.6124359917902442e+01 9.7963255788814685e+00 0 0 0
217 1 1.7546374572656497e+01 1.7438443867443308e+01 8.4364794262626681e+00 -1 -1 0
299 1 1.4603858375732942e+01 1.7526025361837032e+01 1.1426843145838175e+01 0 -1 0
276 2 1.6206444492663287e+01 1.3174773832621588e+01 9.8620379930066306e+00 0 0 0
289 1 1.7556576469097621e+01 1.7389332166311238e+01 1.1423733768582998e+01 -1 -1 0
359 1 1.4511204513100690e+01 1.4558898979968653e+01 1.1413033553138357e+01 0 0 0
288 2 1.6297654416905434e+01 1.5990953736304590e+01 1.0202739060378272e+01 0 0 0
290 2 1.2775526127313925e+00 8.8502247672669965e-01 1.2963887620521010e+01 0 0 0
375 1 2.5884459874869661e+00 2.5771112219255849e+00 1.4457223492096794e+01 0 0 0
362 2 1.2385616046480010e+00 1.3818104826651174e+00 1.5838225611618363e+01 0 0 0
364 2 4.1690590545352917e+00 1.1565435607561547e+00 1.5749704387571999e+01 0 0 0
374 2 9.8845729109212233e-01 4.1633738035899466e+00 1.5863848655897709e+01 0 0 0
735 1 -2.2579043750354988e-01 2.5474233636666406e+00 1.7071984377514053e+01 1 -2 0
503 1 8.6521363527350879e+00 2.8992806369719304e+00 1.6774502681853736e+01 0 2 0
292 2 4.3706235446404973e+00 1.0716243243437369e+00 1.3031206956804100e+01 0 0 0
377 1 5.6709891641620311e+00 2.7760847043110650e+00 1.4371492388716403e+01 0 0 0
366 2 7.0109021354587098e+00 1.1026175640187192e+00 1.5752389727534734e+01 0 0 0
379 1 8.5186216647600439e+00 2.8666180423926475e+00 1.4431070791720062e+01 0 0 0
381 1 1.1708390291406811e+01 2.7778089067721332e+00 1.4504779804320938e+01 0 0 0
368 2 1.0169650128212274e+01 1.3681330552139745e+00 1.5441518540376340e+01 0 0 0
370 2 1.3098049411340869e+01 9.7955671988698367e-01 1.5775038144990880e+01 0 0 0
298 2 1.3066366953382454e+01 1.2381528711386574e+00 1.2914840419837429e+01 0 0 0
308 2 9.9370141924290163e+00 4.0743429665889126e+00 1.2884642404340214e+01 0 0 0
733 1 8.7315784925381159e+00 2.3237853847623813e-01 1.6748845440271719e+01 -1 -2 0
811 1 1.2007294735134430e+01 -1.6644185152539848e-01 1.7311992535261311e+01 -1 2 0
371 1 1.4707370051742579e+01 -1.9274738765073496e-01 1.4203943294386399e+01 0 0 0
373 1 1.7485436156412785e+01 2.3519012849987617e+00 1.4306876275599965e+01 -1 0 0
310 2 1.3185386759580711e+01 4.1280247487902413e+00 1.2868682940295043e+01 0 0 0
312 2 1.6065785798061189e+01 4.0340727148685973e+00 1.3089180496606449e+01 0 0 0
300 2 1.6284877176059510e+01 1.1687591536734161e+00 1.2929187003100072e+01 0 0 0
383 1 1.4820895012180902e+01 2.5887058231867064e+00 1.4349061470058290e+01 0 0 0
372 2 1.6132388737172331e+01 1.1119011821934535e+00 1.5891677251104653e+01 0 0 0
376 2 3.8301881322087414e+00 4.3002307312749668e+00 1.5719779956709360e+01 0 0 0
302 2 1.1477204230440947e+00 4.1927746419090264e+00 1.3051989756952796e+01 0 0 0
314 2 1.1703004994027728e+00 7.0920653666475726e+00 1.3051247534037003e+01 0 0 0
387 1 2.6047716100249896e+00 5.7104570508552852e+00 1.4362618932003322e+01 0 0 0
386 2 1.1127917386697650e+00 6.9893476009124917e+00 1.5827697291074550e+01 0 0 0
399 1 2.6265095959151039e+00 8.5390610450057469e+00 1.4615970317873895e+01 0 0 0
388 2 4.1702787337768079e+00 7.1189922309510898e+00 1.5673453086092028e+01 0 0 0
378 2 7.0007727489395783e+00 4.2775454742800010e+00 1.5866172413710373e+01 0 0 0
316 2 4.2176382680327107e+00 7.3177488654354397e+00 1.2940615325772756e+01 0 0 0
389 1 5.8076946103236855e+00 5.8000029759460592e+00 1.4304956313851854e+01 0 0 0