LAMMPS data file via write_data, version 29 Oct 2020, timestep = 3000000

7330 atoms
5 atom types
5270 bonds
2 bond types
6388 angles
3 angle types
9030 dihedrals
3 dihedral types

-1e-06 27.500002 xlo xhi
100.0 173.499998 ylo yhi
-13.0 106.279701 zlo zhi

Masses

1 15.035
2 14.027
3 12.011
4 44.01
5 12.011

Pair Coeffs # lj/cut/omp

1 0.175 3.905
2 0.118 3.905
3 0 0
4 0.4475 3.79
5 0 0

Bond Coeffs # harmonic/omp

1 260 1.526
2 0 1.4

Angle Coeffs # harmonic/omp

1 63 112
2 63 112
3 0 120

Dihedral Coeffs # opls/omp

1 1.411 -0.271 3.145 0
2 1.411 -0.271 3.145 0
3 0 0 0 0

Atoms # full

4 1003 5 0.0 1.4e-05 102.0 -5.900037 0 0 0
3 1003 5 0.0 1.4e-05 102.0 -7.320034 0 0 0
2 1003 5 0.0 1.4e-05 102.0 -10.160028 0 0 0
1 1003 5 0.0 1.4e-05 102.0 -11.580025 0 0 0
7 1003 5 0.0 1.229767 102.0 -8.030033 0 0 0
12 1003 5 0.0 2.4595210000000005 102.0 -5.900037 0 0 0
11 1003 5 0.0 2.4595210000000005 102.0 -7.320034 0 0 0
15 1003 5 0.0 3.6892740000000006 102.0 -8.030033 0 0 0
20 1003 5 0.0 4.919028 102.0 -5.900037 0 0 0
19 1003 5 0.0 4.919028 102.0 -7.320034 0 0 0
23 1003 5 0.0 6.148781 102.0 -8.030033 0 0 0
28 1003 5 0.0 7.378535 102.0 -5.900037 0 0 0
27 1003 5 0.0 7.378535 102.0 -7.320034 0 0 0
31 1003 5 0.0 8.608288 102.0 -8.030033 0 0 0
5 1003 5 0.0 1.229767 102.0 -12.290024 0 0 0
10 1003 5 0.0 2.4595210000000005 102.0 -10.160028 0 0 0
6 1003 5 0.0 1.229767 102.0 -9.45003 0 0 0
9 1003 5 0.0 2.4595210000000005 102.0 -11.580025 0 0 0
13 1003 5 0.0 3.6892740000000006 102.0 -12.290024 0 0 0
18 1003 5 0.0 4.919028 102.0 -10.160028 0 0 0
14 1003 5 0.0 3.6892740000000006 102.0 -9.45003 0 0 0
17 1003 5 0.0 4.919028 102.0 -11.580025 0 0 0
21 1003 5 0.0 6.148781 102.0 -12.290024 0 0 0
26 1003 5 0.0 7.378535 102.0 -10.160028 0 0 0
22 1003 5 0.0 6.148781 102.0 -9.45003 0 0 0
25 1003 5 0.0 7.378535 102.0 -11.580025 0 0 0
29 1003 5 0.0 8.608288 102.0 -12.290024 0 0 0
30 1003 5 0.0 8.608288 102.0 -9.45003 0 0 0
192 1003 5 0.0 1.229767 102.0 -3.770041000000001 0 0 0
206 1003 5 0.0 3.6892740000000006 102.0 -3.770041000000001 0 0 0
220 1003 5 0.0 6.148781 102.0 -3.770041000000001 0 0 0
234 1003 5 0.0 8.608288 102.0 -3.770041000000001 0 0 0
8 1003 5 0.0 1.229767 102.0 -5.190038999999999 0 0 0
16 1003 5 0.0 3.6892740000000006 102.0 -5.190038999999999 0 0 0
24 1003 5 0.0 6.148781 102.0 -5.190038999999999 0 0 0
32 1003 5 0.0 8.608288 102.0 -5.190038999999999 0 0 0
185 1003 5 0.0 1.4e-05 102.0 -3.0600430000000003 0 0 0
199 1003 5 0.0 2.4595210000000005 102.0 -3.0600430000000003 0 0 0
213 1003 5 0.0 4.919028 102.0 -3.0600430000000003 0 0 0
227 1003 5 0.0 7.378535 102.0 -3.0600430000000003 0 0 0
36 1003 5 0.0 9.838041 102.0 -5.900037 0 0 0
35 1003 5 0.0 9.838041 102.0 -7.320034 0 0 0
39 1003 5 0.0 11.067794 102.0 -8.030033 0 0 0
44 1003 5 0.0 12.297547 102.0 -5.900037 0 0 0
43 1003 5 0.0 12.297547 102.0 -7.320034 0 0 0
47 1003 5 0.0 13.527300000000002 102.0 -8.030033 0 0 0
52 1003 5 0.0 14.757053000000003 102.0 -5.900037 0 0 0
51 1003 5 0.0 14.757053000000003 102.0 -7.320034 0 0 0
55 1003 5 0.0 15.986807 102.0 -8.030033 0 0 0
60 1003 5 0.0 17.21656 102.0 -5.900037 0 0 0
59 1003 5 0.0 17.21656 102.0 -7.320034 0 0 0
34 1003 5 0.0 9.838041 102.0 -10.160028 0 0 0
33 1003 5 0.0 9.838041 102.0 -11.580025 0 0 0
37 1003 5 0.0 11.067794 102.0 -12.290024 0 0 0
42 1003 5 0.0 12.297547 102.0 -10.160028 0 0 0
38 1003 5 0.0 11.067794 102.0 -9.45003 0 0 0
41 1003 5 0.0 12.297547 102.0 -11.580025 0 0 0
45 1003 5 0.0 13.527300000000002 102.0 -12.290024 0 0 0
50 1003 5 0.0 14.757053000000003 102.0 -10.160028 0 0 0
46 1003 5 0.0 13.527300000000002 102.0 -9.45003 0 0 0
49 1003 5 0.0 14.757053000000003 102.0 -11.580025 0 0 0
53 1003 5 0.0 15.986807 102.0 -12.290024 0 0 0
58 1003 5 0.0 17.21656 102.0 -10.160028 0 0 0
54 1003 5 0.0 15.986807 102.0 -9.45003 0 0 0
57 1003 5 0.0 17.21656 102.0 -11.580025 0 0 0
248 1003 5 0.0 11.067794 102.0 -3.770041000000001 0 0 0
262 1003 5 0.0 13.527300000000002 102.0 -3.770041000000001 0 0 0
276 1003 5 0.0 15.986807 102.0 -3.770041000000001 0 0 0
40 1003 5 0.0 11.067794 102.0 -5.190038999999999 0 0 0
48 1003 5 0.0 13.527300000000002 102.0 -5.190038999999999 0 0 0
56 1003 5 0.0 15.986807 102.0 -5.190038999999999 0 0 0
241 1003 5 0.0 9.838041 102.0 -3.0600430000000003 0 0 0
255 1003 5 0.0 12.297547 102.0 -3.0600430000000003 0 0 0
269 1003 5 0.0 14.757053000000003 102.0 -3.0600430000000003 0 0 0
283 1003 5 0.0 17.21656 102.0 -3.0600430000000003 0 0 0
63 1003 5 0.0 18.446314 102.0 -8.030033 0 0 0
68 1003 5 0.0 19.676065 102.0 -5.900037 0 0 0
67 1003 5 0.0 19.676065 102.0 -7.320034 0 0 0
71 1003 5 0.0 20.905819 102.0 -8.030033 0 0 0
76 1003 5 0.0 22.135572 102.0 -5.900037 0 0 0
75 1003 5 0.0 22.135572 102.0 -7.320034 0 0 0
79 1003 5 0.0 23.365326 102.0 -8.030033 0 0 0
84 1003 5 0.0 24.595079 102.0 -5.900037 0 0 0
83 1003 5 0.0 24.595079 102.0 -7.320034 0 0 0
87 1003 5 0.0 25.824833 102.0 -8.030033 0 0 0
92 1003 5 0.0 27.054586 102.0 -5.900037 0 0 0
91 1003 5 0.0 27.054586 102.0 -7.320034 0 0 0
61 1003 5 0.0 18.446314 102.0 -12.290024 0 0 0
66 1003 5 0.0 19.676065 102.0 -10.160028 0 0 0
62 1003 5 0.0 18.446314 102.0 -9.45003 0 0 0
65 1003 5 0.0 19.676065 102.0 -11.580025 0 0 0
69 1003 5 0.0 20.905819 102.0 -12.290024 0 0 0
74 1003 5 0.0 22.135572 102.0 -10.160028 0 0 0
70 1003 5 0.0 20.905819 102.0 -9.45003 0 0 0
73 1003 5 0.0 22.135572 102.0 -11.580025 0 0 0
77 1003 5 0.0 23.365326 102.0 -12.290024 0 0 0
82 1003 5 0.0 24.595079 102.0 -10.160028 0 0 0
78 1003 5 0.0 23.365326 102.0 -9.45003 0 0 0
81 1003 5 0.0 24.595079 102.0 -11.580025 0 0 0
85 1003 5 0.0 25.824833 102.0 -12.290024 0 0 0
90 1003 5 0.0 27.054586 102.0 -10.160028 0 0 0
86 1003 5 0.0 25.824833 102.0 -9.45003 0 0 0
89 1003 5 0.0 27.054586 102.0 -11.580025 0 0 0
290 1003 5 0.0 18.446314 102.0 -3.770041000000001 0 0 0
304 1003 5 0.0 20.905819 102.0 -3.770041000000001 0 0 0
318 1003 5 0.0 23.365326 102.0 -3.770041000000001 0 0 0
332 1003 5 0.0 25.824833 102.0 -3.770041000000001 0 0 0
64 1003 5 0.0 18.446314 102.0 -5.190038999999999 0 0 0
72 1003 5 0.0 20.905819 102.0 -5.190038999999999 0 0 0
80 1003 5 0.0 23.365326 102.0 -5.190038999999999 0 0 0
88 1003 5 0.0 25.824833 102.0 -5.190038999999999 0 0 0
297 1003 5 0.0 19.676065 102.0 -3.0600430000000003 0 0 0
311 1003 5 0.0 22.135572 102.0 -3.0600430000000003 0 0 0
325 1003 5 0.0 24.595079 102.0 -3.0600430000000003 0 0 0
339 1003 5 0.0 27.054586 102.0 -3.0600430000000003 0 0 0
187 1003 5 0.0 1.4e-05 102.0 1.1999469999999999 0 0 0
186 1003 5 0.0 1.4e-05 102.0 -1.640046 0 0 0
194 1003 5 0.0 1.229767 102.0 0.4899489999999993 0 0 0
201 1003 5 0.0 2.4595210000000005 102.0 1.1999469999999999 0 0 0
208 1003 5 0.0 3.6892740000000006 102.0 0.4899489999999993 0 0 0
215 1003 5 0.0 4.919028 102.0 1.1999469999999999 0 0 0
222 1003 5 0.0 6.148781 102.0 0.4899489999999993 0 0 0
229 1003 5 0.0 7.378535 102.0 1.1999469999999999 0 0 0
236 1003 5 0.0 8.608288 102.0 0.4899489999999993 0 0 0
200 1003 5 0.0 2.4595210000000005 102.0 -1.640046 0 0 0
193 1003 5 0.0 1.229767 102.0 -0.9300479999999993 0 0 0
214 1003 5 0.0 4.919028 102.0 -1.640046 0 0 0
207 1003 5 0.0 3.6892740000000006 102.0 -0.9300479999999993 0 0 0
228 1003 5 0.0 7.378535 102.0 -1.640046 0 0 0
221 1003 5 0.0 6.148781 102.0 -0.9300479999999993 0 0 0
235 1003 5 0.0 8.608288 102.0 -0.9300479999999993 0 0 0
189 501 3 0.0 0.8666700000000002 104.419998 0.952942000000002 0 0 0
197 501 3 0.0 2.096423 106.549995 0.952942000000002 0 0 0
190 501 3 0.0 0.8666700000000002 105.839996 0.952942000000002 0 0 0
196 501 3 0.0 2.096423 103.709999 0.952942000000002 0 0 0
203 501 3 0.0 3.3261770000000004 104.419998 0.952942000000002 0 0 0
211 501 3 0.0 4.55593 106.549995 0.952942000000002 0 0 0
204 501 3 0.0 3.3261770000000004 105.839996 0.952942000000002 0 0 0
210 501 3 0.0 4.55593 103.709999 0.952942000000002 0 0 0
217 501 3 0.0 5.785683000000001 104.419998 0.952942000000002 0 0 0
225 501 3 0.0 7.0154380000000005 106.549995 0.952942000000002 0 0 0
218 501 3 0.0 5.785683000000001 105.839996 0.952942000000002 0 0 0
224 501 3 0.0 7.0154380000000005 103.709999 0.952942000000002 0 0 0
231 501 3 0.0 8.24519 104.419998 0.952942000000002 0 0 0
232 501 3 0.0 8.24519 105.839996 0.952942000000002 0 0 0
191 501 3 0.0 0.8666700000000002 108.679985 0.952942000000002 0 0 0
198 501 3 0.0 2.096423 107.969986 0.952942000000002 0 0 0
205 501 3 0.0 3.3261770000000004 108.679985 0.952942000000002 0 0 0
212 501 3 0.0 4.55593 107.969986 0.952942000000002 0 0 0
219 501 3 0.0 5.785683000000001 108.679985 0.952942000000002 0 0 0
226 501 3 0.0 7.0154380000000005 107.969986 0.952942000000002 0 0 0
233 501 3 0.0 8.24519 108.679985 0.952942000000002 0 0 0
950 1003 5 0.0 1.4e-05 102.0 5.459938000000001 0 0 0
188 1003 5 0.0 1.4e-05 102.0 2.6199460000000006 0 0 0
956 1003 5 0.0 1.229767 102.0 4.749939000000001 0 0 0
961 1003 5 0.0 2.4595210000000005 102.0 5.459938000000001 0 0 0
967 1003 5 0.0 3.6892740000000006 102.0 4.749939000000001 0 0 0
973 1003 5 0.0 4.919028 102.0 5.459938000000001 0 0 0
979 1003 5 0.0 6.148781 102.0 4.749939000000001 0 0 0
985 1003 5 0.0 7.378535 102.0 5.459938000000001 0 0 0
992 1003 5 0.0 8.608288 102.0 4.749939000000001 0 0 0
202 1003 5 0.0 2.4595210000000005 102.0 2.6199460000000006 0 0 0
195 1003 5 0.0 1.229767 102.0 3.329943 0 0 0
216 1003 5 0.0 4.919028 102.0 2.6199460000000006 0 0 0
209 1003 5 0.0 3.6892740000000006 102.0 3.329943 0 0 0
230 1003 5 0.0 7.378535 102.0 2.6199460000000006 0 0 0
223 1003 5 0.0 6.148781 102.0 3.329943 0 0 0
237 1003 5 0.0 8.608288 102.0 3.329943 0 0 0
951 1003 5 0.0 1.4e-05 102.0 6.879933999999999 0 0 0
962 1003 5 0.0 2.4595210000000005 102.0 6.879933999999999 0 0 0
974 1003 5 0.0 4.919028 102.0 6.879933999999999 0 0 0
986 1003 5 0.0 7.378535 102.0 6.879933999999999 0 0 0
5697 8 1 0.0 6.384785086657479 104.99076882327788 5.718576953367289 -2 0 0
5689 8 2 0.0 2.2709098036317603 107.55913676366704 4.9661087271023305 -2 0 0
5693 8 2 0.0 4.578025782679261 106.89070570767072 4.662629744708948 -2 0 0
5699 8 2 0.0 6.84685036265462 106.02701212962835 4.541472229595761 -2 0 0
5692 8 2 0.0 3.680165946679749 107.9756375718964 5.166902083810205 -2 0 0
5694 8 2 0.0 6.030800452961844 107.30491006697443 4.723934850204631 -2 0 0
5687 8 2 0.0 1.4169568833864086 108.81017111085082 4.820806426024817 -2 0 0
5637 8 1 0.0 27.479161941919905 108.51406702377282 4.798695098879184 -3 0 0
3514 80 2 0.0 10.82612836000221 107.15646104093724 5.297213208369437 1 0 0
3461 80 1 0.0 10.369631494015637 104.79635453364767 5.909431182845423 1 0 0
3464 80 2 0.0 10.301927595695005 106.23349081949246 6.359899674080779 1 0 0
243 1003 5 0.0 9.838041 102.0 1.1999469999999999 0 0 0
250 1003 5 0.0 11.067794 102.0 0.4899489999999993 0 0 0
257 1003 5 0.0 12.297547 102.0 1.1999469999999999 0 0 0
264 1003 5 0.0 13.527300000000002 102.0 0.4899489999999993 0 0 0
271 1003 5 0.0 14.757053000000003 102.0 1.1999469999999999 0 0 0
278 1003 5 0.0 15.986807 102.0 0.4899489999999993 0 0 0
285 1003 5 0.0 17.21656 102.0 1.1999469999999999 0 0 0
242 1003 5 0.0 9.838041 102.0 -1.640046 0 0 0
256 1003 5 0.0 12.297547 102.0 -1.640046 0 0 0
249 1003 5 0.0 11.067794 102.0 -0.9300479999999993 0 0 0
270 1003 5 0.0 14.757053000000003 102.0 -1.640046 0 0 0
263 1003 5 0.0 13.527300000000002 102.0 -0.9300479999999993 0 0 0
284 1003 5 0.0 17.21656 102.0 -1.640046 0 0 0
277 1003 5 0.0 15.986807 102.0 -0.9300479999999993 0 0 0
239 501 3 0.0 9.474943 106.549995 0.952942000000002 0 0 0
238 501 3 0.0 9.474943 103.709999 0.952942000000002 0 0 0
245 501 3 0.0 10.704697 104.419998 0.952942000000002 0 0 0
253 501 3 0.0 11.93445 106.549995 0.952942000000002 0 0 0
246 501 3 0.0 10.704697 105.839996 0.952942000000002 0 0 0
252 501 3 0.0 11.93445 103.709999 0.952942000000002 0 0 0
259 501 3 0.0 13.164204 104.419998 0.952942000000002 0 0 0
267 501 3 0.0 14.393957 106.549995 0.952942000000002 0 0 0
260 501 3 0.0 13.164204 105.839996 0.952942000000002 0 0 0
266 501 3 0.0 14.393957 103.709999 0.952942000000002 0 0 0
273 501 3 0.0 15.623709 104.419998 0.952942000000002 0 0 0
281 501 3 0.0 16.853464 106.549995 0.952942000000002 0 0 0
274 501 3 0.0 15.623709 105.839996 0.952942000000002 0 0 0
280 501 3 0.0 16.853464 103.709999 0.952942000000002 0 0 0
287 501 3 0.0 18.083216 104.419998 0.952942000000002 0 0 0
288 501 3 0.0 18.083216 105.839996 0.952942000000002 0 0 0
240 501 3 0.0 9.474943 107.969986 0.952942000000002 0 0 0
247 501 3 0.0 10.704697 108.679985 0.952942000000002 0 0 0
254 501 3 0.0 11.93445 107.969986 0.952942000000002 0 0 0
261 501 3 0.0 13.164204 108.679985 0.952942000000002 0 0 0
268 501 3 0.0 14.393957 107.969986 0.952942000000002 0 0 0
275 501 3 0.0 15.623709 108.679985 0.952942000000002 0 0 0
282 501 3 0.0 16.853464 107.969986 0.952942000000002 0 0 0
289 501 3 0.0 18.083216 108.679985 0.952942000000002 0 0 0
995 1003 5 0.0 9.838041 102.0 5.459938000000001 0 0 0
1000 1003 5 0.0 11.067794 102.0 4.749939000000001 0 0 0
1005 1003 5 0.0 12.297547 102.0 5.459938000000001 0 0 0
1011 1003 5 0.0 13.527300000000002 102.0 4.749939000000001 0 0 0
1017 1003 5 0.0 14.757053000000003 102.0 5.459938000000001 0 0 0
1022 1003 5 0.0 15.986807 102.0 4.749939000000001 0 0 0
1026 1003 5 0.0 17.21656 102.0 5.459938000000001 0 0 0
244 1003 5 0.0 9.838041 102.0 2.6199460000000006 0 0 0
258 1003 5 0.0 12.297547 102.0 2.6199460000000006 0 0 0
251 1003 5 0.0 11.067794 102.0 3.329943 0 0 0
272 1003 5 0.0 14.757053000000003 102.0 2.6199460000000006 0 0 0
265 1003 5 0.0 13.527300000000002 102.0 3.329943 0 0 0
286 1003 5 0.0 17.21656 102.0 2.6199460000000006 0 0 0
279 1003 5 0.0 15.986807 102.0 3.329943 0 0 0
996 1003 5 0.0 9.838041 102.0 6.879933999999999 0 0 0
1006 1003 5 0.0 12.297547 102.0 6.879933999999999 0 0 0
1018 1003 5 0.0 14.757053000000003 102.0 6.879933999999999 0 0 0
1027 1003 5 0.0 17.21656 102.0 6.879933999999999 0 0 0
4320 271 1 0.0 15.117173592234797 106.12561418988234 5.7054979251687445 -3 0 0
4322 271 2 0.0 14.577788554127233 107.51895573104736 6.098874966279401 -3 0 0
4323 271 2 0.0 15.552026047267722 108.60004468740222 5.462579315222279 -3 0 0
3512 80 2 0.0 10.648802054113492 108.63776978436684 5.540732460139138 1 0 0
4326 271 2 0.0 15.17153341642615 109.96349675503305 5.910911220141971 -3 0 0
4272 271 2 0.0 16.008455789403055 110.89691293030334 5.047104887046569 -3 0 0
3280 928 4 0.0 25.042033455274254 104.28296093910618 4.37914829366224 -16 0 0
1691 445 2 0.0 20.125087369813674 106.49626158973436 4.484460441651389 -3 0 0
1632 445 1 0.0 20.425548889919458 105.06257734528619 4.930857364113711 -3 0 0
292 1003 5 0.0 18.446314 102.0 0.4899489999999993 0 0 0
299 1003 5 0.0 19.676065 102.0 1.1999469999999999 0 0 0
306 1003 5 0.0 20.905819 102.0 0.4899489999999993 0 0 0
313 1003 5 0.0 22.135572 102.0 1.1999469999999999 0 0 0
320 1003 5 0.0 23.365326 102.0 0.4899489999999993 0 0 0
327 1003 5 0.0 24.595079 102.0 1.1999469999999999 0 0 0
334 1003 5 0.0 25.824833 102.0 0.4899489999999993 0 0 0
341 1003 5 0.0 27.054586 102.0 1.1999469999999999 0 0 0
298 1003 5 0.0 19.676065 102.0 -1.640046 0 0 0
291 1003 5 0.0 18.446314 102.0 -0.9300479999999993 0 0 0
312 1003 5 0.0 22.135572 102.0 -1.640046 0 0 0
305 1003 5 0.0 20.905819 102.0 -0.9300479999999993 0 0 0
326 1003 5 0.0 24.595079 102.0 -1.640046 0 0 0
319 1003 5 0.0 23.365326 102.0 -0.9300479999999993 0 0 0
340 1003 5 0.0 27.054586 102.0 -1.640046 0 0 0
333 1003 5 0.0 25.824833 102.0 -0.9300479999999993 0 0 0
295 501 3 0.0 19.312969 106.549995 0.952942000000002 0 0 0
294 501 3 0.0 19.312969 103.709999 0.952942000000002 0 0 0
301 501 3 0.0 20.542723 104.419998 0.952942000000002 0 0 0
309 501 3 0.0 21.772476 106.549995 0.952942000000002 0 0 0
302 501 3 0.0 20.542723 105.839996 0.952942000000002 0 0 0
308 501 3 0.0 21.772476 103.709999 0.952942000000002 0 0 0
315 501 3 0.0 23.00223 104.419998 0.952942000000002 0 0 0
323 501 3 0.0 24.231983 106.549995 0.952942000000002 0 0 0
316 501 3 0.0 23.00223 105.839996 0.952942000000002 0 0 0
322 501 3 0.0 24.231983 103.709999 0.952942000000002 0 0 0
329 501 3 0.0 25.461737000000003 104.419998 0.952942000000002 0 0 0
337 501 3 0.0 26.69149 106.549995 0.952942000000002 0 0 0
330 501 3 0.0 25.461737000000003 105.839996 0.952942000000002 0 0 0
336 501 3 0.0 26.69149 103.709999 0.952942000000002 0 0 0
296 501 3 0.0 19.312969 107.969986 0.952942000000002 0 0 0
303 501 3 0.0 20.542723 108.679985 0.952942000000002 0 0 0
310 501 3 0.0 21.772476 107.969986 0.952942000000002 0 0 0
317 501 3 0.0 23.00223 108.679985 0.952942000000002 0 0 0
324 501 3 0.0 24.231983 107.969986 0.952942000000002 0 0 0
331 501 3 0.0 25.461737000000003 108.679985 0.952942000000002 0 0 0
338 501 3 0.0 26.69149 107.969986 0.952942000000002 0 0 0
1034 1003 5 0.0 18.446314 102.0 4.749939000000001 0 0 0
1038 1003 5 0.0 19.676065 102.0 5.459938000000001 0 0 0
1043 1003 5 0.0 20.905819 102.0 4.749939000000001 0 0 0
1047 1003 5 0.0 22.135572 102.0 5.459938000000001 0 0 0
1054 1003 5 0.0 23.365326 102.0 4.749939000000001 0 0 0
1060 1003 5 0.0 24.595079 102.0 5.459938000000001 0 0 0
1067 1003 5 0.0 25.824833 102.0 4.749939000000001 0 0 0
1072 1003 5 0.0 27.054586 102.0 5.459938000000001 0 0 0
300 1003 5 0.0 19.676065 102.0 2.6199460000000006 0 0 0
293 1003 5 0.0 18.446314 102.0 3.329943 0 0 0
314 1003 5 0.0 22.135572 102.0 2.6199460000000006 0 0 0
307 1003 5 0.0 20.905819 102.0 3.329943 0 0 0
328 1003 5 0.0 24.595079 102.0 2.6199460000000006 0 0 0
321 1003 5 0.0 23.365326 102.0 3.329943 0 0 0
342 1003 5 0.0 27.054586 102.0 2.6199460000000006 0 0 0
335 1003 5 0.0 25.824833 102.0 3.329943 0 0 0
1061 1003 5 0.0 24.595079 102.0 6.879933999999999 0 0 0
1073 1003 5 0.0 27.054586 102.0 6.879933999999999 0 0 0
1039 1003 5 0.0 19.676065 102.0 6.879933999999999 0 0 0
1048 1003 5 0.0 22.135572 102.0 6.879933999999999 0 0 0
1693 445 2 0.0 21.045645067402223 107.47078705269604 5.30463236623199 -3 0 0
1635 445 2 0.0 22.515415674900176 107.32736097726936 5.004770554030064 -3 0 0
1637 445 2 0.0 23.356925797141447 108.43225370905452 5.454804207435271 -3 0 0
1694 445 2 0.0 23.070594935398763 109.65996314296878 4.514725459919125 -3 0 0
1696 445 2 0.0 24.117581532513217 110.62516817316568 5.0548291314763985 -3 0 0
343 501 3 0.0 0.8666700000000002 110.099983 0.952942000000002 0 0 0
351 501 3 0.0 3.3261770000000004 110.099983 0.952942000000002 0 0 0
359 501 3 0.0 5.785683000000001 110.099983 0.952942000000002 0 0 0
367 501 3 0.0 8.24519 110.099983 0.952942000000002 0 0 0
344 501 3 0.0 0.8666700000000002 112.93998 0.952942000000002 0 0 0
349 501 3 0.0 2.096423 115.069977 0.952942000000002 0 0 0
345 501 3 0.0 0.8666700000000002 114.359978 0.952942000000002 0 0 0
348 501 3 0.0 2.096423 112.22998 0.952942000000002 0 0 0
352 501 3 0.0 3.3261770000000004 112.93998 0.952942000000002 0 0 0
357 501 3 0.0 4.55593 115.069977 0.952942000000002 0 0 0
353 501 3 0.0 3.3261770000000004 114.359978 0.952942000000002 0 0 0
356 501 3 0.0 4.55593 112.22998 0.952942000000002 0 0 0
360 501 3 0.0 5.785683000000001 112.93998 0.952942000000002 0 0 0
365 501 3 0.0 7.0154380000000005 115.069977 0.952942000000002 0 0 0
361 501 3 0.0 5.785683000000001 114.359978 0.952942000000002 0 0 0
364 501 3 0.0 7.0154380000000005 112.22998 0.952942000000002 0 0 0
368 501 3 0.0 8.24519 112.93998 0.952942000000002 0 0 0
369 501 3 0.0 8.24519 114.359978 0.952942000000002 0 0 0
346 501 3 0.0 0.8666700000000002 117.199966 0.952942000000002 0 0 0
350 501 3 0.0 2.096423 116.489975 0.952942000000002 0 0 0
354 501 3 0.0 3.3261770000000004 117.199966 0.952942000000002 0 0 0
358 501 3 0.0 4.55593 116.489975 0.952942000000002 0 0 0
370 501 3 0.0 8.24519 117.199966 0.952942000000002 0 0 0
366 501 3 0.0 7.0154380000000005 116.489975 0.952942000000002 0 0 0
362 501 3 0.0 5.785683000000001 117.199966 0.952942000000002 0 0 0
347 501 3 0.0 2.096423 110.809982 0.952942000000002 0 0 0
355 501 3 0.0 4.55593 110.809982 0.952942000000002 0 0 0
363 501 3 0.0 7.0154380000000005 110.809982 0.952942000000002 0 0 0
6361 84 1 0.0 5.626191780682119 110.93504537799518 6.030456375514261 -1 0 0
6362 84 2 0.0 4.889869742792804 111.62257714095438 4.965964044539267 -1 0 0
6363 84 2 0.0 4.027354099983567 112.63763522999169 5.622963022721238 -1 0 0
6364 84 2 0.0 2.8562580090209595 113.16486695079429 4.6458417520274065 -1 0 0
6365 84 2 0.0 1.9154700711495736 114.21909254139193 5.2708147287587455 -1 0 0
2376 82 1 0.0 6.021108596019522 115.6880264972244 5.207257424180699 -3 0 0
2382 82 2 0.0 5.002850735668435 116.42450478645497 4.374652926066043 -3 0 0
2388 82 2 0.0 4.795826676684319 117.76977129512376 5.012089948833098 -3 0 0
2149 435 2 0.0 18.07635341486573 114.09584919875473 16.68768322455958 -4 0 0
2396 82 2 0.0 3.4131296126468813 118.19190709529167 4.644812657409732 -3 0 0
3058 52 2 0.0 13.617869430856812 117.98877720813572 15.139273621767964 0 0 0
3507 80 2 0.0 9.611515512830948 111.13810279211864 5.054246281241138 1 0 0
3513 80 2 0.0 11.371391173771627 109.62261684834888 4.662208814211567 1 0 0
3511 80 2 0.0 11.112442278719886 111.00686780089957 5.195733357770767 1 0 0
375 501 3 0.0 10.704697 110.099983 0.952942000000002 0 0 0
383 501 3 0.0 13.164204 110.099983 0.952942000000002 0 0 0
391 501 3 0.0 15.623709 110.099983 0.952942000000002 0 0 0
399 501 3 0.0 18.083216 110.099983 0.952942000000002 0 0 0
373 501 3 0.0 9.474943 115.069977 0.952942000000002 0 0 0
372 501 3 0.0 9.474943 112.22998 0.952942000000002 0 0 0
376 501 3 0.0 10.704697 112.93998 0.952942000000002 0 0 0
381 501 3 0.0 11.93445 115.069977 0.952942000000002 0 0 0
377 501 3 0.0 10.704697 114.359978 0.952942000000002 0 0 0
380 501 3 0.0 11.93445 112.22998 0.952942000000002 0 0 0
384 501 3 0.0 13.164204 112.93998 0.952942000000002 0 0 0
389 501 3 0.0 14.393957 115.069977 0.952942000000002 0 0 0
385 501 3 0.0 13.164204 114.359978 0.952942000000002 0 0 0
388 501 3 0.0 14.393957 112.22998 0.952942000000002 0 0 0
392 501 3 0.0 15.623709 112.93998 0.952942000000002 0 0 0
397 501 3 0.0 16.853464 115.069977 0.952942000000002 0 0 0
393 501 3 0.0 15.623709 114.359978 0.952942000000002 0 0 0
396 501 3 0.0 16.853464 112.22998 0.952942000000002 0 0 0
400 501 3 0.0 18.083216 112.93998 0.952942000000002 0 0 0
401 501 3 0.0 18.083216 114.359978 0.952942000000002 0 0 0
402 501 3 0.0 18.083216 117.199966 0.952942000000002 0 0 0
398 501 3 0.0 16.853464 116.489975 0.952942000000002 0 0 0
394 501 3 0.0 15.623709 117.199966 0.952942000000002 0 0 0
390 501 3 0.0 14.393957 116.489975 0.952942000000002 0 0 0
386 501 3 0.0 13.164204 117.199966 0.952942000000002 0 0 0
382 501 3 0.0 11.93445 116.489975 0.952942000000002 0 0 0
378 501 3 0.0 10.704697 117.199966 0.952942000000002 0 0 0
374 501 3 0.0 9.474943 116.489975 0.952942000000002 0 0 0
395 501 3 0.0 16.853464 110.809982 0.952942000000002 0 0 0
387 501 3 0.0 14.393957 110.809982 0.952942000000002 0 0 0
379 501 3 0.0 11.93445 110.809982 0.952942000000002 0 0 0
371 501 3 0.0 9.474943 110.809982 0.952942000000002 0 0 0
4144 455 1 0.0 11.334648869740905 115.2700487340551 5.087693022182287 -2 0 0
4275 271 2 0.0 15.858134404794466 112.3857888605957 5.413438697185441 -3 0 0
4145 455 2 0.0 12.530257491742548 116.05164769724985 4.830258735810137 -2 0 0
4276 271 2 0.0 16.73288973992861 113.30685295602304 4.541975709299145 -3 0 0
4274 271 1 0.0 16.270106745952663 114.71892320249616 4.443998316672601 -3 0 0
4147 455 2 0.0 12.66284829869203 117.47217681517165 5.393472847396831 -2 0 0
3590 52 1 0.0 14.575126380403127 117.90133739068112 14.039599804907425 0 0 0
4052 455 2 0.0 13.970170748921445 118.00027189844876 4.716144656273354 -2 0 0
6366 84 2 0.0 0.751112347302678 114.42471469175975 4.3158441137745704 -1 0 0
6367 84 2 0.0 27.024401302274445 115.2471133108427 4.757342633907285 -2 0 0
6368 84 1 0.0 0.06245025143403239 116.58968003581796 5.202886874484137 -1 0 0
1220 477 2 0.0 18.54413481869921 118.35101260605263 6.538084717778986 -1 0 0
1699 445 1 0.0 24.44581557223964 111.82071990705775 4.270592152926861 -3 0 0
407 501 3 0.0 20.542723 110.099983 0.952942000000002 0 0 0
415 501 3 0.0 23.00223 110.099983 0.952942000000002 0 0 0
423 501 3 0.0 25.461737000000003 110.099983 0.952942000000002 0 0 0
405 501 3 0.0 19.312969 115.069977 0.952942000000002 0 0 0
404 501 3 0.0 19.312969 112.22998 0.952942000000002 0 0 0
408 501 3 0.0 20.542723 112.93998 0.952942000000002 0 0 0
413 501 3 0.0 21.772476 115.069977 0.952942000000002 0 0 0
409 501 3 0.0 20.542723 114.359978 0.952942000000002 0 0 0
412 501 3 0.0 21.772476 112.22998 0.952942000000002 0 0 0
416 501 3 0.0 23.00223 112.93998 0.952942000000002 0 0 0
421 501 3 0.0 24.231983 115.069977 0.952942000000002 0 0 0
417 501 3 0.0 23.00223 114.359978 0.952942000000002 0 0 0
420 501 3 0.0 24.231983 112.22998 0.952942000000002 0 0 0
424 501 3 0.0 25.461737000000003 112.93998 0.952942000000002 0 0 0
429 501 3 0.0 26.69149 115.069977 0.952942000000002 0 0 0
425 501 3 0.0 25.461737000000003 114.359978 0.952942000000002 0 0 0
428 501 3 0.0 26.69149 112.22998 0.952942000000002 0 0 0
430 501 3 0.0 26.69149 116.489975 0.952942000000002 0 0 0
426 501 3 0.0 25.461737000000003 117.199966 0.952942000000002 0 0 0
422 501 3 0.0 24.231983 116.489975 0.952942000000002 0 0 0
418 501 3 0.0 23.00223 117.199966 0.952942000000002 0 0 0
414 501 3 0.0 21.772476 116.489975 0.952942000000002 0 0 0
410 501 3 0.0 20.542723 117.199966 0.952942000000002 0 0 0
406 501 3 0.0 19.312969 116.489975 0.952942000000002 0 0 0
427 501 3 0.0 26.69149 110.809982 0.952942000000002 0 0 0
419 501 3 0.0 24.231983 110.809982 0.952942000000002 0 0 0
411 501 3 0.0 21.772476 110.809982 0.952942000000002 0 0 0
403 501 3 0.0 19.312969 110.809982 0.952942000000002 0 0 0
3305 962 4 0.0 27.281171879889882 117.6998008833664 9.394006715993784 -6 0 -3
1414 345 1 0.0 21.001867683969298 115.01537042432703 5.258747098067679 1 0 0
1368 345 2 0.0 20.391094223419724 113.82380076021565 7.383727921825097 0 0 0
1366 345 2 0.0 20.91807878895366 113.6610527664078 5.933825688895437 0 0 0
958 1003 5 0.0 1.229767 102.0 9.00993 0 0 0
969 1003 5 0.0 3.6892740000000006 102.0 9.00993 0 0 0
981 1003 5 0.0 6.148781 102.0 9.00993 0 0 0
994 1003 5 0.0 8.608288 102.0 9.00993 0 0 0
957 1003 5 0.0 1.229767 102.0 7.5899329999999985 0 0 0
968 1003 5 0.0 3.6892740000000006 102.0 7.5899329999999985 0 0 0
980 1003 5 0.0 6.148781 102.0 7.5899329999999985 0 0 0
993 1003 5 0.0 8.608288 102.0 7.5899329999999985 0 0 0
952 1003 5 0.0 1.4e-05 102.0 9.719929 0 0 0
963 1003 5 0.0 2.4595210000000005 102.0 9.719929 0 0 0
975 1003 5 0.0 4.919028 102.0 9.719929 0 0 0
987 1003 5 0.0 7.378535 102.0 9.719929 0 0 0
1450 1003 5 0.0 1.4e-05 102.0 15.399916000000001 0 0 0
1449 1003 5 0.0 1.4e-05 102.0 13.979918999999999 0 0 0
953 1003 5 0.0 1.4e-05 102.0 11.139925000000002 0 0 0
1454 1003 5 0.0 1.229767 102.0 13.269919999999999 0 0 0
1460 1003 5 0.0 2.4595210000000005 102.0 15.399916000000001 0 0 0
1459 1003 5 0.0 2.4595210000000005 102.0 13.979918999999999 0 0 0
1465 1003 5 0.0 3.6892740000000006 102.0 13.269919999999999 0 0 0
1472 1003 5 0.0 4.919028 102.0 15.399916000000001 0 0 0
1471 1003 5 0.0 4.919028 102.0 13.979918999999999 0 0 0
1477 1003 5 0.0 6.148781 102.0 13.269919999999999 0 0 0
1481 1003 5 0.0 7.378535 102.0 15.399916000000001 0 0 0
1480 1003 5 0.0 7.378535 102.0 13.979918999999999 0 0 0
1485 1003 5 0.0 8.608288 102.0 13.269919999999999 0 0 0
964 1003 5 0.0 2.4595210000000005 102.0 11.139925000000002 0 0 0
1453 1003 5 0.0 1.229767 102.0 11.849924000000001 0 0 0
976 1003 5 0.0 4.919028 102.0 11.139925000000002 0 0 0
1464 1003 5 0.0 3.6892740000000006 102.0 11.849924000000001 0 0 0
988 1003 5 0.0 7.378535 102.0 11.139925000000002 0 0 0
1476 1003 5 0.0 6.148781 102.0 11.849924000000001 0 0 0
1484 1003 5 0.0 8.608288 102.0 11.849924000000001 0 0 0
1455 1003 5 0.0 1.229767 102.0 16.109915 0 0 0
1466 1003 5 0.0 3.6892740000000006 102.0 16.109915 0 0 0
1478 1003 5 0.0 6.148781 102.0 16.109915 0 0 0
1486 1003 5 0.0 8.608288 102.0 16.109915 0 0 0
4900 180 2 0.0 7.364606152373261 107.86442166632389 8.741161153425022 -2 0 0
4901 180 2 0.0 7.723510913159759 109.20886641571745 9.473477200228373 -2 0 0
2032 405 2 0.0 3.9403757386383136 107.33399262155618 14.29139647367034 -3 0 0
2030 405 2 0.0 2.836606593881977 107.30358599702178 13.24074114791103 -3 0 0
2029 405 1 0.0 2.5026192069729505 105.84154286943965 12.79130464152138 -3 0 0
2034 405 2 0.0 4.581568923794204 108.71141581093435 14.519588544250324 -3 0 0
1919 405 2 0.0 5.080084127828639 108.61419153978382 15.962490639360484 -3 0 0
1920 405 2 0.0 5.438642155518359 109.94755620705833 16.61039171030607 -3 0 0
4904 180 2 0.0 7.238025540506727 106.65501137092222 9.579915352521967 -2 0 0
4902 180 1 0.0 5.7935461307320875 106.40045947319182 9.983561988589694 -2 0 0
4522 795 4 0.0 1.94249608434189 105.56709509886099 8.578912600910792 -8 0 -1
4898 180 2 0.0 6.723778902729481 109.75119413855546 10.539686196649269 -2 0 0
1002 1003 5 0.0 11.067794 102.0 9.00993 0 0 0
1013 1003 5 0.0 13.527300000000002 102.0 9.00993 0 0 0
1024 1003 5 0.0 15.986807 102.0 9.00993 0 0 0
1001 1003 5 0.0 11.067794 102.0 7.5899329999999985 0 0 0
1012 1003 5 0.0 13.527300000000002 102.0 7.5899329999999985 0 0 0
1023 1003 5 0.0 15.986807 102.0 7.5899329999999985 0 0 0
997 1003 5 0.0 9.838041 102.0 9.719929 0 0 0
1007 1003 5 0.0 12.297547 102.0 9.719929 0 0 0
1019 1003 5 0.0 14.757053000000003 102.0 9.719929 0 0 0
1028 1003 5 0.0 17.21656 102.0 9.719929 0 0 0
1493 1003 5 0.0 9.838041 102.0 15.399916000000001 0 0 0
1492 1003 5 0.0 9.838041 102.0 13.979918999999999 0 0 0
1497 1003 5 0.0 11.067794 102.0 13.269919999999999 0 0 0
1503 1003 5 0.0 12.297547 102.0 15.399916000000001 0 0 0
1502 1003 5 0.0 12.297547 102.0 13.979918999999999 0 0 0
1507 1003 5 0.0 13.527300000000002 102.0 13.269919999999999 0 0 0
1513 1003 5 0.0 14.757053000000003 102.0 15.399916000000001 0 0 0
1512 1003 5 0.0 14.757053000000003 102.0 13.979918999999999 0 0 0
1518 1003 5 0.0 15.986807 102.0 13.269919999999999 0 0 0
1523 1003 5 0.0 17.21656 102.0 15.399916000000001 0 0 0
1522 1003 5 0.0 17.21656 102.0 13.979918999999999 0 0 0
998 1003 5 0.0 9.838041 102.0 11.139925000000002 0 0 0
1008 1003 5 0.0 12.297547 102.0 11.139925000000002 0 0 0
1496 1003 5 0.0 11.067794 102.0 11.849924000000001 0 0 0