LAMMPS (29 Oct 2020)
OMP_NUM_THREADS environment is not set. Defaulting to 1 thread. (src/comm.cpp:94)
  using 1 OpenMP thread(s) per MPI task
variable file_name string "npt_co2_ua_graphene.dat"
variable log_file_name string "npt_co2_ua_graphene.log"
variable dump_file_name string "npt_co2_ua_graphene.lammpstrj"

log ${log_file_name}
log npt_co2_ua_graphene.log
